/*--------------------------------*- C++ -*----------------------------------*\
| =========                 |                                                 |
| \\      /  F ield         | OpenFOAM: The Open Source CFD Toolbox           |
|  \\    /   O peration     | Version:  v1612+                                |
|   \\  /    A nd           | Web:      www.OpenFOAM.com                      |
|    \\/     M anipulation  |                                                 |
\*---------------------------------------------------------------------------*/
FoamFile
{
    version     2.0;
    format      ascii;
    class       volScalarField;
    location    "0.1";
    object      p;
}
// * * * * * * * * * * * * * * * * * * * * * * * * * * * * * * * * * * * * * //

dimensions      [0 2 -2 0 0 0 0];

internalField   nonuniform List<scalar> 
113025
(
0.0221868
0.0189656
0.0299849
0.00455355
0.0300817
0.0301883
0.0302749
0.0303758
0.030475
0.028701
0.0287869
0.028883
0.0292853
0.0293501
0.021671
0.0303221
0.002473
0.00467894
0.00523718
0.028785
0.0261332
0.028439
0.0247039
0.0252042
0.0257038
0.0488162
0.0488106
0.048548
0.0483667
0.0484615
0.0483862
0.00524577
0.00521584
0.0480567
0.0478406
0.00516659
0.00521528
0.0474535
0.0472855
0.00516235
0.0051639
0.0468696
0.0243148
0.0467495
0.00508544
0.00508639
0.0462931
0.0237868
0.0461852
0.00499418
0.00499291
0.0457249
0.045643
0.00490289
0.00479302
0.00490346
0.0451519
0.0451021
0.00478949
0.0445755
0.021087
0.0215809
0.0222373
0.0227963
0.0233204
0.0445039
0.00466917
0.043999
0.0438893
0.00452663
0.0434309
0.0433275
0.0043901
0.0428684
0.042761
0.00424748
0.0422936
0.0422071
0.00409166
0.0417177
0.0416519
0.00393317
0.0411661
0.0411042
0.00377768
0.0406453
0.0406109
0.00362761
0.0401294
0.0401162
0.00346554
0.0396131
0.0396042
0.00331893
0.0391043
0.00521561
0.00519725
0.0390516
0.00317839
0.00303549
0.00288714
0.0385972
0.0374226
0.037927
0.0384705
0.00312978
0.00323421
0.0381036
0.00273759
0.0027024
0.00265593
0.00261908
0.00258596
0.00254583
0.00250304
0.00246067
0.0024227
0.00238741
0.00234804
0.00230558
0.00226181
0.00221684
0.00217845
0.0021442
0.00210123
0.00205559
0.00201293
0.00197623
0.00193645
0.00189354
0.00185525
0.00182141
0.00178917
0.00175298
0.00171538
0.00168096
0.00164781
0.00161641
0.00158382
0.00154961
0.001518
0.00148772
0.00145595
0.00142669
0.00139649
0.0013669
0.00133648
0.0013117
0.00128771
0.00125495
0.00122746
0.00119972
0.0011773
0.00115615
0.0011335
0.00111009
0.00108058
0.00105373
0.00102847
0.00100301
0.000982731
0.000966805
0.00095073
0.000927036
0.000906303
0.000890848
0.000876319
0.000861911
0.000844814
0.000860183
0.000870721
0.000883004
0.000894523
0.000905901
0.000915472
0.000933391
0.000942697
0.000954802
0.000962556
0.000973171
0.000980631
0.000989644
0.000995495
0.00100078
0.00100456
0.00101101
0.00101293
0.00101594
0.00101836
0.00102669
0.00102699
0.00103375
0.00103238
0.00103642
0.00103208
0.00103951
0.00103663
0.0010332
0.00102627
0.00102332
0.00102076
0.00101241
0.00100896
0.00100168
0.000993859
0.00098666
0.000978999
0.00096802
0.000960857
0.000955622
0.000947558
0.000939098
0.000929709
0.000917603
0.000903163
0.000887833
0.000875513
0.000862477
0.000844875
0.000866683
0.000884108
0.000903723
0.000923757
0.000939054
0.000960892
0.000982739
0.00100468
0.00102852
0.00105238
0.00107835
0.00110373
0.001127
0.00114807
0.00117399
0.00119521
0.00121753
0.00124625
0.00127848
0.00131172
0.00133772
0.0013651
0.00139085
0.00141499
0.00144537
0.00147704
0.00150732
0.00153504
0.00156935
0.00160377
0.00163515
0.00166371
0.00169457
0.00173179
0.0017675
0.00180527
0.00185244
0.00188555
0.00190772
0.00193747
0.00196934
0.00200972
0.00205539
0.00209952
0.00212342
0.00213543
0.00216529
0.00220835
0.00225176
0.00228876
0.00232954
0.0023653
0.00238094
0.00240087
0.00242667
0.00244484
0.00300262
0.0375926
0.0265344
0.027017
0.0274756
0.0279483
0.00286351
0.0370762
0.0263948
0.036533
0.0360517
0.035781
0.0355141
0.0352578
0.0349959
0.0347209
0.0344289
0.0341489
0.0338974
0.033628
0.0333327
0.0330383
0.0327576
0.0324539
0.0321146
0.031808
0.0315182
0.031177
0.0308261
0.0305128
0.0302041
0.0299165
0.0296628
0.0293484
0.0267699
0.0259964
0.00260727
0.00273804
0.0256045
0.0252093
0.024787
0.0243642
0.0239415
0.0239803
0.023558
0.00334356
0.0305864
0.00349819
0.0308879
0.0271474
0.00366425
0.0280781
0.0278008
0.027432
0.0274974
0.0311297
0.0313755
0.0316941
0.0320007
0.0323095
0.0326036
0.0328952
0.0331907
0.0334806
0.0337631
0.0340433
0.0343148
0.0345828
0.0348455
0.0351196
0.0353895
0.0356507
0.0359245
0.0361845
0.0364371
0.0366868
0.0369274
0.0371662
0.00377849
0.00393816
0.0211799
0.00405546
0.0191067
0.0190496
0.0199475
0.0205966
0.0207094
0.00421637
0.0296396
0.0282826
0.0230985
0.0202055
0.00435596
0.0299605
0.0302717
0.0286492
0.0290661
0.022645
0.0194726
0.00448829
0.0305616
0.0289635
0.0294273
0.0221849
0.0304116
0.00462102
0.0304967
0.030576
0.0306722
0.0307608
0.0308521
0.0291514
0.0292347
0.029318
0.0297026
0.0297822
0.0216566
0.0306704
0.0025817
0.00474564
0.00520964
0.0287604
0.0239889
0.00253689
0.0195078
0.0287368
0.0201483
0.0303614
0.01973
0.0262031
0.04836
0.048356
0.0480181
0.0479213
0.0480034
0.0479346
0.00524913
0.00524085
0.047581
0.0473607
0.00519288
0.00518496
0.0469925
0.0248019
0.0253125
0.0257817
0.0468638
0.00512565
0.00512262
0.0464016
0.0243669
0.0463108
0.00505201
0.0050487
0.0458502
0.0457686
0.0049725
0.00485854
0.00495485
0.0452922
0.0452577
0.004859
0.0447282
0.0216323
0.0223012
0.0228193
0.0233636
0.0238948
0.0446934
0.00473841
0.0441648
0.044096
0.00461508
0.0435987
0.0435108
0.00447405
0.0430497
0.0429728
0.00433807
0.0424889
0.0424125
0.00419364
0.041921
0.0418654
0.0040322
0.0413625
0.0413276
0.00388127
0.0408367
0.0408132
0.00373067
0.0403254
0.0403176
0.0035686
0.0398168
0.0398172
0.00341525
0.0393074
0.00523195
0.0392941
0.00328268
0.00313822
0.00299398
0.0387998
0.0376428
0.0381595
0.0387123
0.0383058
0.00284694
0.00280246
0.00275367
0.00271196
0.00267725
0.00263473
0.00258736
0.00254199
0.00249369
0.00245834
0.00242425
0.00237626
0.00232725
0.00228252
0.00224073
0.00220228
0.00216338
0.00211521
0.00206996
0.00202935
0.00199051
0.00194888
0.00190626
0.00187053
0.00183194
0.00179491
0.00176135
0.0017259
0.00168905
0.00165449
0.00162112
0.00158711
0.00155333
0.00151569
0.00148365
0.00145819
0.00142728
0.00139669
0.001367
0.00133919
0.00130928
0.00127806
0.0012482
0.00122134
0.00119723
0.00117485
0.00115339
0.00112882
0.00110193
0.00107264
0.00104469
0.00102108
0.00100038
0.000983462
0.000966685
0.000945885
0.000923348
0.000906131
0.000890186
0.00087487
0.000885263
0.000899737
0.000909022
0.000920664
0.000934178
0.000948755
0.000957325
0.000974984
0.000985849
0.000997253
0.00100687
0.00101393
0.00102111
0.00102596
0.00103109
0.00103028
0.00103448
0.00103886
0.00103723
0.00104404
0.00104728
0.00105175
0.00105236
0.00105411
0.00105317
0.00105901
0.00105633
0.001057
0.00105537
0.00104959
0.00104652
0.00103924
0.00103699
0.00102869
0.00102357
0.00101539
0.00100532
0.000996999
0.000990611
0.000981042
0.000973629
0.000966403
0.000951046
0.000935118
0.000921599
0.000906848
0.000893553
0.000882067
0.000899435
0.000919305
0.000939581
0.000958408
0.000978864
0.00100016
0.00102136
0.00104487
0.00107183
0.00109749
0.00112018
0.00114346
0.00116484
0.00119334
0.00121946
0.00124052
0.00127444
0.00130641
0.00133249
0.00135866
0.00138915
0.00142028
0.00144262
0.00147099
0.0015082
0.00154272
0.00157144
0.00160598
0.00164364
0.00167398
0.00169842
0.001727
0.00176486
0.00180611
0.00185468
0.00189854
0.00193339
0.00196357
0.001993
0.00202913
0.00206692
0.00210786
0.00216132
0.00219708
0.00221343
0.00224058
0.0022783
0.00231599
0.00236504
0.00242035
0.00245052
0.00246718
0.00249208
0.0025125
0.00309327
0.00318061
0.037814
0.0266173
0.0270902
0.0275462
0.0280042
0.00294534
0.0372891
0.0367697
0.0362486
0.0359715
0.035703
0.0354439
0.0351745
0.0348922
0.0346095
0.0343303
0.0340668
0.0337825
0.0334732
0.0331689
0.0328793
0.0325721
0.03225
0.0319484
0.0316278
0.0312644
0.0309207
0.0306084
0.0303034
0.0300441
0.0298112
0.0295133
0.0291521
0.0268187
0.0264416
0.0027047
0.00282671
0.0260402
0.0256534
0.0252552
0.0248265
0.0244073
0.0244364
0.00333082
0.0034409
0.0309808
0.027197
0.00359191
0.0284744
0.0281706
0.0278729
0.0279504
0.0275596
0.0312259
0.0314703
0.0317987
0.0321064
0.0324276
0.0327231
0.0330186
0.0333191
0.0336075
0.0338921
0.0341753
0.0344529
0.0347231
0.0349921
0.0352709
0.0355444
0.0358168
0.0360965
0.0363586
0.0366259
0.0368786
0.0371193
0.0373768
0.00375411
0.00387105
0.00401732
0.0206387
0.0211169
0.0211894
0.00414415
0.028363
0.023596
0.0206837
0.0042945
0.0300356
0.0231362
0.00442919
0.0306568
0.0290446
0.0294941
0.022689
0.00455717
0.0309464
0.0294129
0.0298413
0.0221888
0.0307572
0.00468766
0.030864
0.0309685
0.0310508
0.031152
0.0312321
0.0295663
0.0296474
0.0297265
0.0301314
0.0301997
0.0216582
0.0310768
0.00265318
0.00480296
0.00521713
0.028854
0.0479881
0.0478057
0.0476444
0.047449
0.047494
0.0475122
0.00521096
0.00521105
0.0471435
0.0263059
0.0469216
0.00517013
0.00515136
0.0465211
0.0248631
0.0253823
0.0258914
0.0464262
0.00512344
0.00508472
0.0459755
0.0458743
0.00501249
0.00491253
0.00501529
0.0454158
0.0453776
0.00492814
0.0448676
0.0239252
0.0244469
0.044852
0.00480619
0.0443162
0.0442567
0.0046898
0.0437585
0.0437037
0.00455562
0.0432101
0.0431469
0.00441669
0.0426714
0.0426106
0.0042798
0.0421098
0.0420768
0.00412973
0.0415551
0.0415552
0.00397378
0.0410194
0.0410127
0.00382206
0.0405078
0.0404966
0.00367083
0.0400025
0.0400113
0.00351312
0.0395001
0.00524576
0.0395147
0.00337783
0.00324167
0.00309436
0.039
0.0378672
0.0383806
0.0389535
0.0385011
0.00294319
0.00289768
0.00285955
0.00280637
0.00275838
0.00271671
0.00266716
0.00261675
0.00257354
0.00253598
0.00249527
0.00244638
0.00239144
0.00234322
0.00230439
0.00226211
0.00221622
0.00216873
0.00212466
0.00208045
0.00203805
0.00199536
0.00195448
0.00191403
0.0018775
0.00183627
0.00179709
0.00176212
0.00172701
0.00169263
0.00165774
0.00162313
0.00158613
0.00155294
0.0015191
0.00148348
0.00145506
0.00142471
0.00139402
0.00136612
0.00133576
0.00130765
0.0012759
0.00124752
0.00122326
0.00119607
0.00117244
0.00114835
0.00112462
0.00109448
0.00106444
0.00104293
0.00101915
0.000999392
0.000982058
0.000959389
0.000935563
0.000915968
0.00089936
0.000916887
0.000925183
0.000939572
0.000954674
0.000964942
0.000980203
0.000997425
0.00100777
0.0010204
0.00103085
0.00103748
0.00104756
0.00104847
0.00105417
0.00105197
0.00105943
0.00105831
0.0010646
0.00106543
0.00106738
0.00107468
0.00106815
0.00107381
0.00106768
0.00107738
0.00107472
0.00107998
0.00107728
0.00107309
0.00107019
0.00106409
0.00106513
0.00105505
0.00105279
0.00104191
0.00103527
0.00102841
0.00101859
0.00100772
0.00100001
0.000986611
0.000972441
0.00095682
0.000942817
0.000927298
0.000912776
0.000932853
0.0009524
0.00097179
0.000992483
0.00101903
0.00104167
0.00106293
0.00108821
0.00111295
0.00113842
0.00116061
0.00118783
0.00121355
0.00123861
0.00126356
0.00129319
0.00132818
0.00135723
0.00138925
0.00142013
0.00144812
0.00147615
0.00150451
0.00153822
0.00157198
0.00160493
0.00164334
0.00168355
0.00171226
0.00173412
0.00176777
0.00180871
0.00185112
0.00189554
0.00193823
0.001977
0.00200988
0.00204988
0.00208933
0.00211858
0.00216031
0.00221518
0.00226469
0.00229545
0.00231052
0.00234417
0.00239586
0.00244033
0.00248906
0.00253661
0.0025655
0.00259351
0.00262097
0.00262677
0.0380144
0.0267139
0.0271479
0.0276394
0.0280539
0.00302532
0.00310119
0.0375103
0.0369776
0.0364733
0.0361853
0.0359096
0.0356351
0.0353509
0.0350624
0.0347903
0.0345158
0.0342243
0.033908
0.0335912
0.0333093
0.0330237
0.0326979
0.0323796
0.0320606
0.0317123
0.0313521
0.0310145
0.0306777
0.0303528
0.030101
0.0298758
0.0295992
0.0292397
0.0268642
0.0028006
0.00292932
0.0264883
0.0260843
0.0256924
0.025303
0.0248741
0.0249279
0.0244864
0.00324861
0.00340262
0.0272486
0.00351583
0.0285673
0.0282783
0.0283461
0.0279953
0.0276208
0.0313173
0.0315666
0.0319062
0.0322136
0.0325456
0.0328375
0.0331414
0.0334468
0.0337283
0.0340277
0.0343058
0.0345892
0.0348693
0.0351314
0.0354228
0.0356956
0.0359761
0.0362706
0.0365315
0.0368041
0.0370747
0.0373121
0.0375763
0.00367854
0.00383161
0.00395476
0.0206128
0.0208212
0.0211954
0.0217594
0.0223579
0.0228366
0.0234354
0.00409404
0.0284472
0.0288235
0.0240129
0.0212809
0.00422304
0.0304558
0.0236092
0.00436649
0.0307556
0.0291268
0.0231373
0.0044953
0.0310471
0.0294881
0.0299198
0.0227112
0.00462873
0.0313277
0.0298036
0.0302763
0.0221501
0.0311643
0.00474368
0.0312426
0.0313201
0.0314178
0.0315022
0.0316088
0.0299997
0.0300727
0.030147
0.030527
0.0306172
0.0217208
0.0314136
0.0289842
0.00275236
0.00484695
0.00525111
0.00272165
0.0308293
0.0476348
0.0473971
0.0472855
0.046999
0.0470306
0.0471201
0.00521661
0.00517058
0.0465613
0.0263897
0.0464924
0.00509918
0.00514334
0.0460698
0.0459781
0.00509227
0.00496225
0.00505196
0.0455274
0.0454965
0.0049706
0.0449815
0.0244938
0.0249654
0.0254462
0.0259808
0.0449789
0.00487172
0.0444509
0.0444219
0.00475596
0.0439006
0.0438614
0.00463301
0.0433618
0.0433328
0.00449213
0.0428289
0.0427891
0.00436256
0.0422916
0.0422674
0.00422079
0.0417333
0.0417587
0.0040641
0.0411964
0.0412327
0.00391746
0.040685
0.0406823
0.00375751
0.0401825
0.0401827
0.00360915
0.0396819
0.00518235
0.0052192
0.0397211
0.00347012
0.00333658
0.0031914
0.0391853
0.0380625
0.0385933
0.0391791
0.0386926
0.00304668
0.00299663
0.00294407
0.00289559
0.00284764
0.00279549
0.00274295
0.00269218
0.00264904
0.00260511
0.00256097
0.00251159
0.00245682
0.00240553
0.00235998
0.00232
0.00227263
0.00222474
0.00218177
0.00213467
0.0020833
0.00203901
0.00200053
0.00195874
0.00191746
0.00187652
0.00183708
0.00179905
0.00176117
0.00172586
0.00169245
0.00165553
0.00161718
0.00158498
0.00155186
0.00151416
0.00148264
0.00145217
0.00141955
0.00138706
0.00135983
0.00133392
0.00130241
0.00126884
0.00123926
0.00121204
0.00118432
0.0011639
0.00114123
0.00111261
0.00108205
0.00105596
0.00103473
0.00101545
0.0009969
0.000976032
0.000956172
0.000933627
0.000950107
0.000961906
0.000973459
0.000990571
0.00100429
0.00101523
0.00102819
0.00104207
0.0010546
0.00106229
0.00107362
0.00107232
0.00108056
0.00107657
0.00108926
0.00108344
0.00108554
0.00109251
0.00108642
0.0010961
0.00109094
0.00109427
0.0010819
0.00110402
0.00108941
0.00110258
0.00109328
0.00109206
0.00109378
0.00108963
0.00108972
0.00107953
0.00107811
0.00106958
0.00106486
0.00105392
0.00104559
0.00103438
0.0010217
0.00100462
0.000992723
0.00097793
0.000965717
0.000948533
0.000969117
0.000989868
0.00101396
0.00103839
0.00106261
0.00108286
0.00110577
0.00113118
0.00115225
0.00117688
0.00120375
0.00122994
0.0012582
0.00128958
0.0013173
0.00134824
0.0013825
0.00141556
0.00144468
0.00146892
0.00149838
0.00153515
0.00156889
0.00160385
0.00164054
0.00168071
0.00172154
0.00174923
0.00177683
0.00180935
0.00184372
0.00188629
0.00193324
0.00197796
0.00202182
0.00206423
0.00210585
0.00213996
0.00217294
0.00221289
0.00225886
0.00232236
0.00237559
0.00239553
0.0024174
0.00246127
0.00250413
0.00255498
0.00262338
0.00265788
0.00267845
0.00271081
0.0381998
0.0267674
0.0272427
0.0276907
0.0281555
0.0377126
0.0371983
0.0366808
0.0363995
0.0361209
0.0358358
0.0355389
0.0352358
0.0349445
0.0346405
0.0343346
0.0340311
0.0337503
0.0334719
0.0331563
0.0328231
0.0324985
0.032168
0.0318098
0.0314537
0.0310999
0.0307525
0.0304471
0.0301739
0.0298769
0.0296734
0.00288483
0.00300666
0.00308597
0.0269134
0.0265363
0.0261359
0.025724
0.0253301
0.025363
0.0249486
0.0032009
0.00333901
0.0273049
0.00349255
0.0286884
0.0288355
0.0284498
0.028065
0.0276797
0.0316606
0.0320118
0.0323168
0.0326582
0.0329493
0.0332649
0.0335728
0.0338498
0.0341633
0.0344417
0.0347255
0.035019
0.0352738
0.0355738
0.0358534
0.036128
0.0364335
0.0367089
0.03698
0.0372513
0.0375033
0.0377662
0.00361406
0.00376797
0.00390849
0.0212475
0.0213311
0.0218027
0.0223674
0.0228538
0.0234453
0.024017
0.00404282
0.0285486
0.028882
0.0245088
0.00416743
0.0240329
0.00429711
0.0291969
0.0236673
0.00443185
0.0311339
0.0295676
0.0231607
0.00456113
0.0314056
0.0298821
0.0303368
0.0227044
0.00468159
0.031691
0.0302221
0.0306793
0.022248
0.0315063
0.00478636
0.0316125
0.0317066
0.0317897
0.031891
0.031965
0.030395
0.0304746
0.0305453
0.0217692
0.0218671
0.0317659
0.0291075
0.00490102
0.00514089
0.0309323
0.0310106
0.0298102
0.0292892
0.0312367
0.031321
0.0296559
0.024997
0.0249863
0.0255293
0.0260455
0.047067
0.0468971
0.0466079
0.0466588
0.0468183
0.00523473
0.00517065
0.0461681
0.0460508
0.0051072
0.00498313
0.00510992
0.0456229
0.0455903
0.00502419
0.0450902
0.0264608
0.0451063
0.00492367
0.0445675
0.0445572
0.00482287
0.0440327
0.0440227
0.00469693
0.0434941
0.043494
0.00456608
0.0429761
0.0429656
0.00443651
0.042446
0.0424516
0.00430536
0.0419103
0.0419405
0.00415059
0.0413698
0.0414262
0.0040013
0.0408496
0.0408875
0.0038532
0.040353
0.0403688
0.0036982
0.0398565
0.00522733
0.00520764
0.0398946
0.00356013
0.00342559
0.00328348
0.0393587
0.0382647
0.03882
0.0394042
0.0388722
0.0031387
0.00308469
0.00303289
0.00298732
0.00293152
0.00287456
0.00281984
0.00276329
0.00271555
0.00266984
0.00262314
0.0025765
0.00252302
0.00246451
0.00241567
0.00237314
0.00232338
0.00227235
0.0022267
0.00218388
0.00213208
0.00208411
0.00204378
0.00200005
0.00195663
0.00191884
0.00187737
0.00183324
0.00179527
0.00176216
0.00172719
0.00168919
0.00164994
0.00161193
0.00157832
0.0015424
0.00150901
0.00147765
0.0014444
0.00141378
0.00138579
0.00135421
0.00132334
0.00129214
0.00125845
0.00123422
0.00120762
0.00118281
0.00116002
0.00113218
0.0011038
0.00107386
0.00104936
0.00103075
0.00100979
0.000990756
0.000972083
0.000986221
0.000997168
0.00101083
0.00102211
0.00103418
0.00105011
0.0010614
0.00107551
0.00108728
0.00109635
0.00110218
0.00111016
0.00110527
0.0011156
0.00110954
0.00111429
0.00112199
0.0011096
0.00112351
0.00111142
0.00111353
0.00110889
0.00112621
0.0011068
0.00111981
0.00111565
0.00111618
0.0011184
0.00111447
0.0011112
0.00110339
0.0011018
0.00109429
0.00108721
0.00107622
0.00106953
0.00105406
0.00104468
0.00102571
0.00101338
0.000997033
0.000981926
0.000999058
0.00102364
0.00105273
0.00107916
0.00109939
0.00112139
0.00114543
0.00116784
0.00119552
0.00122152
0.00124648
0.00127802
0.00130938
0.00133916
0.0013687
0.00140314
0.00144125
0.00147297
0.00149719
0.00152553
0.00156198
0.00159861
0.00163399
0.0016711
0.0017053
0.00174565
0.00178369
0.00181435
0.00184367
0.00187825
0.00192055
0.00196852
0.00201538
0.00206181
0.00210956
0.00214628
0.00218925
0.00223723
0.00227018
0.00230504
0.00236792
0.00243427
0.00246652
0.00248577
0.00252854
0.00257132
0.00262414
0.00269897
0.00273924
0.00277239
0.00298182
0.00307778
0.0383864
0.0268574
0.0272829
0.0277789
0.0282195
0.0378962
0.037406
0.0368916
0.0365955
0.0362952
0.0359938
0.0356934
0.0353926
0.0350942
0.034798
0.034493
0.0341796
0.0338813
0.0335859
0.0332681
0.0329478
0.0326193
0.032263
0.0319036
0.0315442
0.0311877
0.0308662
0.0305635
0.0302538
0.0269561
0.0265735
0.0261811
0.0257689
0.0257901
0.0254062
0.00316725
0.00327732
0.0273449
0.00341595
0.0288906
0.028507
0.0281007
0.0277222
0.0035679
0.00368927
0.00384771
0.0240055
0.024566
0.00398488
0.0286096
0.0289282
0.00410559
0.0245403
0.00423769
0.0240114
0.00436136
0.0236838
0.00448737
0.0315108
0.0299562
0.0231571
0.00461575
0.00529783
0.031796
0.0302951
0.0307504
0.0227383
0.0047313
0.0320788
0.0306238
0.022365
0.0223531
0.0227771
0.0228318
0.0234591
0.0318636
0.0321177
0.032425
0.03278
0.0330623
0.0333872
0.0336872
0.0339725
0.0342897
0.0345713
0.0348685
0.0351613
0.0354297
0.035727
0.0359957
0.036289
0.0365791
0.0368611
0.0371676
0.0374342
0.0376878
0.0379734
0.00484179
0.0310914
0.0319437
0.0320384
0.0321338
0.0322241
0.0323318
0.0308213
0.0308831
0.0309622
0.00491485
0.0051699
0.031406
0.0297037
0.0315963
0.0461908
0.0461979
0.0462508
0.00513469
0.005025
0.00507047
0.045699
0.0456542
0.00505972
0.0451713
0.0265382
0.0452055
0.00498482
0.044667
0.0446665
0.0048754
0.044139
0.0441382
0.00475227
0.0436119
0.0436421
0.00463091
0.043106
0.0431176
0.0045004
0.0425906
0.0426079
0.00437848
0.0420629
0.0421201
0.0042365
0.0415357
0.041599
0.00407681
0.041012
0.0410812
0.00393503
0.0405069
0.0405691
0.00378697
0.0400216
0.00523883
0.0051553
0.0400664
0.00364378
0.00351251
0.00337241
0.0395271
0.0384845
0.0390596
0.0395787
0.0390414
0.00322689
0.00317159
0.00311826
0.00306218
0.00300381
0.00294935
0.00289289
0.00283303
0.00278338
0.00273761
0.00268299
0.00262872
0.0025779
0.00252746
0.00247378
0.00242311
0.00237858
0.00232724
0.00227611
0.00223091
0.00217863
0.00212581
0.00208044
0.00204083
0.00199806
0.00195087
0.00190794
0.00186771
0.0018295
0.00179131
0.00175647
0.00171697
0.00167642
0.00164656
0.00161033
0.00157105
0.00153807
0.00150273
0.00146679
0.0014383
0.00140905
0.00137843
0.0013485
0.00131332
0.00127766
0.00124784
0.00122534
0.00119848
0.00117105
0.00114782
0.00112222
0.00109103
0.00106349
0.00104171
0.00102375
0.00100847
0.00101966
0.00102851
0.00104224
0.00105507
0.00106736
0.00108208
0.0010936
0.00110636
0.00112156
0.00113219
0.00113795
0.00113744
0.00114815
0.00114116
0.00114843
0.00115274
0.0011409
0.00115674
0.00113548
0.00114383
0.0011423
0.00114677
0.00113777
0.00114529
0.00114409
0.00114567
0.00114322
0.00113941
0.00113654
0.00113019
0.00112612
0.00111366
0.00110717
0.00109548
0.00108926
0.00107381
0.00106733
0.00104683
0.00103358
0.00101743
0.00104175
0.00106707
0.00109403
0.00111987
0.00113932
0.00116197
0.00118989
0.001212
0.00123726
0.00126436
0.0012931
0.00132735
0.00135921
0.00138816
0.00142577
0.00146301
0.00149367
0.00152046
0.00155077
0.00158651
0.00162782
0.00166861
0.00170573
0.00174286
0.00177815
0.0018206
0.00185696
0.00188716
0.00192832
0.00196808
0.0020019
0.00204646
0.00209721
0.00214665
0.00218951
0.00223498
0.00228679
0.00232646
0.00235416
0.00241213
0.00249357
0.0025443
0.00256164
0.00259329
0.0026453
0.0026974
0.00275852
0.00281434
0.00288005
0.00297317
0.0385599
0.0269289
0.0273542
0.0278423
0.0282981
0.0380802
0.0375834
0.0371062
0.0368113
0.0365023
0.0361884
0.0358738
0.0355613
0.0352514
0.0349318
0.0346075
0.0343046
0.0340153
0.033713
0.0333911
0.0330553
0.0327036
0.032363
0.0320297
0.0316521
0.0312765
0.0309434
0.0306267
0.030343
0.0299677
0.0300943
0.0269945
0.0266153
0.0262013
0.0262522
0.0258262
0.0254021
0.00309596
0.00322793
0.0273728
0.0033487
0.0288996
0.0285183
0.0281251
0.0277626
0.00349085
0.00363527
0.00376733
0.024576
0.0250336
0.0255507
0.0260991
0.00391822
0.0286805
0.0290052
0.0293705
0.00404833
0.024973
0.00417426
0.0245655
0.00429677
0.0241001
0.00441656
0.0300084
0.0236362
0.00454284
0.0318837
0.0303698
0.0230818
0.0232024
0.0046601
0.0321584
0.0307055
0.024008
0.032221
0.0325281
0.0329092
0.0331741
0.0335168
0.0338069
0.0340961
0.0344329
0.0346877
0.0350196
0.0353044
0.0355638
0.0358925
0.0361318
0.036423
0.0367356
0.0369861
0.0373019
0.0376233
0.037871
0.0381633
0.0293518
0.0047797
0.0311544
0.0324193
0.0310224
0.00488028
0.0051931
0.0314786
0.031203
0.0312797
0.0313439
0.0323289
0.0324146
0.0325021
0.0325946
0.0326785
0.00496665
0.00513769
0.0316929
0.0317885
0.0304514
0.00498297
0.0456705
0.0457489
0.0457588
0.045922
0.0250739
0.025576
0.0297747
0.026214
0.00509028
0.0452123
0.0452577
0.00503023
0.0447381
0.0447696
0.00492772
0.0442343
0.0442414
0.004816
0.043715
0.0437713
0.00467713
0.0432224
0.0432621
0.00456955
0.0427177
0.0427569
0.00444021
0.0422058
0.0422677
0.00430476
0.0416794
0.0417762
0.00415894
0.0411738
0.0412674
0.00400979
0.0406641
0.0407617
0.00386421
0.0401676
0.0051358
0.00501626
0.0402528
0.00372812
0.00359059
0.00345501
0.0396895
0.0387132
0.039261
0.039736
0.0392032
0.00331195
0.00325357
0.00319785
0.00313574
0.00308246
0.00302806
0.00296276
0.00290284
0.00284754
0.00279734
0.00274086
0.00268412
0.00263557
0.00258002
0.00252527
0.00247559
0.00242547
0.00237352
0.00232262
0.00227296
0.00222616
0.00217304
0.00212239
0.00207838
0.00203286
0.00198854
0.00194317
0.00190199
0.00186227
0.0018208
0.00178349
0.00174663
0.00170882
0.00166897
0.00163123
0.0015995
0.00156228
0.00152739
0.00149403
0.00145864
0.00142896
0.00139772
0.00136493
0.00133201
0.00130116
0.00126905
0.00124145
0.00121415
0.00118675
0.00116356
0.0011342
0.00110808
0.00108358
0.00105783
0.00103797
0.00104944
0.0010612
0.00107619
0.00108764
0.0011003
0.0011144
0.00112757
0.00114151
0.00115225
0.00116595
0.00116823
0.00117945
0.00117701
0.0011827
0.00118449
0.00117845
0.00118744
0.00117648
0.00118461
0.00118133
0.00118261
0.00117496
0.00118001
0.00117523
0.00117387
0.00116906
0.00116222
0.00115872
0.00115224
0.00114535
0.0011351
0.00112823
0.00111658
0.00110923
0.00109298
0.00108425
0.00106493
0.00105274
0.00107494
0.00110319
0.00113069
0.00115607
0.00117901
0.00120355
0.00122963
0.00125453
0.00128041
0.00131033
0.00134663
0.00137718
0.00140846
0.00144759
0.00148319
0.00151602
0.00154702
0.00157644
0.00161139
0.00165062
0.00169449
0.00173309
0.00177071
0.00180618
0.00184271
0.00188369
0.00192267
0.00195988
0.00199797
0.00203401
0.00207829
0.00213788
0.00219258
0.00223822
0.00228893
0.00234411
0.00238431
0.00241195
0.00246016
0.00253676
0.00259566
0.00262289
0.00265687
0.00271496
0.00276995
0.00281866
0.0028784
0.00294545
0.0387288
0.0269753
0.0274258
0.0279191
0.028373
0.0382523
0.0377755
0.0372708
0.0369634
0.0366561
0.0363394
0.036035
0.0357385
0.0354168
0.0350784
0.0347429
0.0344271
0.0341203
0.0337979
0.0334856
0.0331759
0.0328313
0.032478
0.032118
0.0317464
0.0313938
0.031055
0.0307003
0.0304107
0.0301831
0.0298927
0.0296562
0.0270135
0.0266475
0.0266578
0.0262749
0.0258724
0.00317872
0.0274077
0.00331475
0.0288964
0.0285387
0.028154
0.0277989
0.00343977
0.00356799
0.00371266
0.0265659
0.00383988
0.0287285
0.0290466
0.0294428
0.003986
0.0254316
0.0041091
0.0249691
0.00423521
0.024554
0.00435204
0.0301022
0.0241285
0.0044735
0.0319801
0.0236647
0.0237197
0.00458572
0.032252
0.0307842
0.0248585
0.029657
0.0292708
0.00470094
0.0325192
0.0310746
0.00481562
0.00519224
0.0315532
0.0314266
0.0326205
0.0330132
0.0332966
0.033623
0.0339411
0.0342126
0.0345637
0.0348115
0.0351339
0.0354528
0.0356981
0.0360303
0.0362988
0.0365527
0.0368676
0.0371258
0.037398
0.0377352
0.0327761
0.00491291
0.0318705
0.0327339
0.0328307
0.0329306
0.0330222
0.0316217
0.031676
0.0317543
0.0320845
0.0321685
0.00504206
0.00496068
0.0301675
0.00509985
0.0457128
0.0452409
0.0453097
0.0453635
0.0455713
0.0455463
0.0051108
0.0447893
0.0448402
0.00500193
0.0443222
0.0443434
0.00482893
0.0438053
0.0438884
0.0047503
0.0433255
0.0434169
0.00461835
0.0428336
0.0429049
0.00450127
0.0423242
0.0424266
0.00436834
0.0418231
0.0419314
0.00422819
0.0413148
0.04144
0.00408452
0.0408115
0.0409466
0.0039449
0.040322
0.00506265
0.00500823
0.00509411
0.0404277
0.00380207
0.00367192
0.00353276
0.0398352
0.03893
0.0394062
0.0399015
0.0393604
0.00339388
0.00333219
0.00326948
0.00320749
0.00314975
0.0030893
0.00303096
0.0029704
0.00290841
0.00285592
0.0028002
0.00274019
0.00268588
0.00263037
0.00257567
0.00252596
0.00246997
0.00241699
0.00236941
0.00231777
0.00225974
0.0022068
0.00215912
0.002114
0.00206857
0.00201992
0.00197523
0.00193579
0.00189552
0.00185159
0.00181072
0.00177418
0.00173428
0.00169362
0.00166021
0.00162625
0.00158683
0.00154915
0.00151462
0.00148146
0.00145084
0.00142208
0.00138612
0.00135164
0.00132316
0.00128913
0.00125732
0.00122818
0.00120078
0.00117598
0.00114918
0.00112385
0.00109737
0.00107129
0.00108569
0.00109761
0.00111026
0.0011241
0.00113541
0.00114827
0.00115762
0.00117043
0.00118488
0.00119508
0.00120643
0.00120534
0.00121312
0.00121687
0.00121653
0.00121434
0.0012198
0.00121976
0.00121685
0.00122391
0.00120902
0.00121366
0.00119413
0.00119889
0.00119034
0.00118845
0.00118095
0.00117178
0.0011647
0.00115418
0.00114877
0.0011385
0.00112994
0.00111325
0.00110303
0.00108939
0.00111764
0.00114291
0.00116818
0.00119698
0.001225
0.00124829
0.00127123
0.00129849
0.00132789
0.00135978
0.00139306
0.00142954
0.00146603
0.00150009
0.00153412
0.00156809
0.00160169
0.00163522
0.00167477
0.00171888
0.00176385
0.00180108
0.00183608
0.00187331
0.00191767
0.00196345
0.00200029
0.0020384
0.00208278
0.00212675
0.00217501
0.00222537
0.00227227
0.0023265
0.00238327
0.00242295
0.00245706
0.00251882
0.00259328
0.00264361
0.00267685
0.00272574
0.00278031
0.00282959
0.00288619
0.00294701
0.0030094
0.00307121
0.00312296
0.0388853
0.0384211
0.0379395
0.0374671
0.0371478
0.0368286
0.0365028
0.0361854
0.0358749
0.0355422
0.0352027
0.0348805
0.0345665
0.0342503
0.0339253
0.033601
0.0332552
0.0329059
0.0325737
0.0322254
0.0318442
0.0314806
0.031136
0.0307816
0.0304632
0.0301778
0.0270454
0.027073
0.0266975
0.0262938
0.0274572
0.00325473
0.0289275
0.0285618
0.0281895
0.0278265
0.00338409
0.00350723
0.00364161
0.0266515
0.0270406
0.0274891
0.0279864
0.0283905
0.0037751
0.0287685
0.0291041
0.0295138
0.0298291
0.0039068
0.0258815
0.00404106
0.0253761
0.00416371
0.0249966
0.00428684
0.0305045
0.024557
0.0044046
0.0241778
0.0238318
0.0245224
0.00451905
0.0323517
0.0308396
0.0252015
0.0257072
0.0262428
0.0296507
0.0292769
0.00462111
0.0326272
0.0311284
0.00472419
0.0315009
0.0328854
0.00484695
0.031945
0.0330875
0.0334181
0.0337205
0.0340592
0.0343422
0.0346699
0.0349532
0.0352534
0.0355771
0.0358543
0.0361611
0.0364563
0.0367119
0.0370151
0.0372654
0.0375183
0.0377961
0.0331245
0.0318104
0.0322603
0.00492711
0.0331751
0.033263
0.0333642
0.0320072
0.0320755
0.0321274
0.0324292
0.0325324
0.00503075
0.0051162
0.0299572
0.0302303
0.0291857
0.00345424
0.00489078
0.00492197
0.00501287
0.00505114
0.0452086
0.0448263
0.0449048
0.0450008
0.0451203
0.045134
0.0443675
0.0444223
0.00489341
0.0438806
0.0439952
0.00477428
0.0433898
0.0435323
0.00468036
0.0429298
0.0430497
0.00455014
0.0424304
0.0425563
0.0044272
0.0419281
0.0420838
0.00429216
0.0414458
0.0415985
0.00415623
0.0409484
0.0411022
0.00401316
0.0404538
0.0405884
0.0038752
0.00374244
0.00361076
0.0399787
0.0390617
0.0395539
0.0400738
0.0394994
0.00347354
0.0034111
0.00334281
0.00327868
0.0032162
0.00315404
0.00309397
0.00302858
0.00296704
0.00291034
0.00285281
0.00279405
0.00273534
0.00267899
0.00262276
0.00256925
0.00251601