/*--------------------------------*- C++ -*----------------------------------*\
| =========                 |                                                 |
| \\      /  F ield         | OpenFOAM: The Open Source CFD Toolbox           |
|  \\    /   O peration     | Version:  v1612+                                |
|   \\  /    A nd           | Web:      www.OpenFOAM.com                      |
|    \\/     M anipulation  |                                                 |
\*---------------------------------------------------------------------------*/
FoamFile
{
    version     2.0;
    format      ascii;
    class       surfaceScalarField;
    location    "0.1";
    object      phi;
}
// * * * * * * * * * * * * * * * * * * * * * * * * * * * * * * * * * * * * * //

dimensions      [0 3 -1 0 0 0 0];

internalField   nonuniform List<scalar> 
225094
(
4.55518e-06
-6.76116e-07
-4.58288e-06
7.03821e-07
-8.32618e-07
5.17285e-06
-4.8214e-06
4.81162e-07
-9.88803e-07
3.63758e-06
1.04548e-06
-3.69425e-06
2.47243e-06
3.72339e-07
-2.45175e-06
-3.93023e-07
-9.33441e-07
3.64275e-06
-3.69812e-06
-8.83436e-07
3.65741e-06
-3.70742e-06
-8.4884e-07
3.67229e-06
-3.70688e-06
-8.08008e-07
3.66809e-06
-3.70893e-06
-7.85357e-07
3.63928e-06
-3.66194e-06
-6.30553e-07
3.74554e-06
6.77123e-07
-3.79211e-06
-6.15594e-07
3.72543e-06
-3.74039e-06
-6.52261e-07
3.74864e-06
-3.71198e-06
-6.47554e-07
3.6818e-06
7.02752e-07
-3.737e-06
-6.35327e-07
3.72171e-06
-3.73394e-06
4.66685e-06
-6.37897e-07
-4.73032e-06
7.01367e-07
-9.14816e-07
3.63313e-06
9.43307e-07
-3.66162e-06
2.92723e-06
2.74143e-07
-2.89902e-06
-3.02351e-07
2.434e-06
3.81811e-07
-2.42991e-06
-3.85895e-07
2.16698e-06
8.50586e-08
-1.0349e-07
-2.14855e-06
-1.23877e-06
1.71224e-06
-3.62773e-06
3.15425e-06
-7.067e-07
3.78258e-06
7.71998e-07
-3.84788e-06
4.16665e-06
-7.73532e-07
-4.35413e-06
9.61008e-07
3.90441e-06
-6.9509e-07
6.74901e-07
-3.88422e-06
3.86047e-06
-4.84893e-07
5.28835e-07
3.85765e-06
-6.8802e-07
6.90832e-07
-1.2755e-08
-2.90593e-06
7.24422e-08
2.84625e-06
1.47529e-08
-2.90356e-06
2.87605e-06
-2.895e-06
5.91726e-08
2.85058e-06
-2.27135e-07
-2.8895e-06
2.69636e-07
2.847e-06
-1.54304e-07
-2.92754e-06
2.85471e-06
-1.00768e-07
-2.99716e-06
2.94362e-06
1.28551e-07
2.20808e-06
-1.73184e-07
-2.16344e-06
2.23312e-06
1.86037e-07
-2.30663e-07
-2.18849e-06
-4.82335e-08
-2.89777e-06
9.13662e-08
2.85464e-06
-2.36976e-07
-2.94895e-06
2.7507e-07
2.91085e-06
1.59022e-07
2.1665e-06
-1.64785e-07
-2.16074e-06
2.30406e-07
2.2476e-06
-2.61851e-07
-2.21615e-06
-5.56319e-08
-2.99821e-06
1.27849e-07
2.92599e-06
-2.63829e-07
-2.95154e-06
3.03108e-07
2.91226e-06
1.77398e-07
2.20151e-06
-2.05189e-07
-2.17372e-06
2.66055e-07
2.235e-06
-2.96315e-07
-2.20474e-06
-1.3676e-07
-3.02507e-06
1.8009e-07
2.98174e-06
3.96845e-06
-5.06604e-07
-3.97452e-06
5.12674e-07
-3.2392e-07
-2.91786e-06
3.29055e-07
2.91272e-06
2.09251e-07
2.29699e-06
-2.48297e-07
-2.25795e-06
2.82687e-07
2.29691e-06
-3.07562e-07
-2.27204e-06
-2.04819e-07
-3.05344e-06
2.52983e-07
3.00528e-06
4.05444e-06
-3.78608e-07
-4.12903e-06
4.53197e-07
-3.38564e-07
-2.96984e-06
3.47816e-07
2.96059e-06
2.55134e-07
2.32534e-06
-2.6451e-07
-2.31596e-06
3.02365e-07
2.35622e-06
-3.49592e-07
-2.30899e-06
-2.35047e-07
-3.0974e-06
2.79e-07
3.05345e-06
-3.48841e-07
-2.99047e-06
3.5759e-07
2.98173e-06
2.63652e-07
2.35072e-06
-2.83828e-07
-2.33054e-06
2.43166e-06
3.94583e-07
-2.40801e-06
-4.18231e-07
2.39486e-06
3.72129e-07
-3.86144e-07
-2.38085e-06
-3.04861e-07
-3.15881e-06
3.46072e-07
3.1176e-06
-3.80232e-07
-3.0225e-06
4.16179e-07
2.98655e-06
2.78551e-07
2.37108e-06
-2.99768e-07
-2.34986e-06
-3.47961e-07
-3.17649e-06
3.80669e-07
3.14378e-06
4.5714e-06
5.8021e-09
3.13527e-08
-4.60856e-06
4.4713e-06
-5.79568e-08
-4.52267e-06
1.09332e-07
4.36124e-06
-6.07938e-08
1.70855e-07
4.28193e-06
-1.2524e-07
2.04551e-07
-1.94645e-07
4.16826e-06
3.08308e-07
-3.86479e-07
-3.0604e-06
4.39879e-07
3.007e-06
2.9164e-07
2.41559e-06
-3.36569e-07
-2.37066e-06
-3.8251e-07
-3.24193e-06
4.32039e-07
3.1924e-06
-4.40751e-07
-3.11759e-06
4.91543e-07
3.0668e-06
3.66771e-07
2.48794e-06
-4.02561e-07
-2.45215e-06
-4.32519e-07
-3.27381e-06
4.72647e-07
3.23368e-06
-5.48595e-07
-3.17607e-06
5.72697e-07
3.15197e-06
3.77569e-07
2.55203e-06
-4.17079e-07
-2.51252e-06
-4.7225e-07
-3.29281e-06
5.11089e-07
3.25397e-06
-5.93388e-07
-3.252e-06
6.34104e-07
3.21128e-06
4.09695e-07
2.59222e-06
-4.53769e-07
-2.54815e-06
-4.70326e-07
-3.28957e-06
5.08472e-07
3.25143e-06
-6.00439e-07
-3.24436e-06
5.92765e-07
3.25204e-06
4.47909e-07
2.60823e-06
-4.59529e-07
-2.59661e-06
-5.16234e-07
-3.32005e-06
5.5157e-07
3.28471e-06
-5.74521e-07
-3.26985e-06
5.98296e-07
3.24608e-06
4.06696e-07
2.63477e-06
-4.22587e-07
-2.61888e-06
-5.13144e-07
-3.31735e-06
5.63388e-07
3.2671e-06
-5.71364e-07
-3.2464e-06
5.92215e-07
3.22555e-06
4.09428e-07
2.62109e-06
-3.98718e-07
-2.6318e-06
-4.9977e-07
-3.29418e-06
5.12727e-07
3.28122e-06
-5.91558e-07
-3.24429e-06
5.8493e-07
3.25092e-06
3.37062e-07
2.60729e-06
-3.30266e-07
-2.61408e-06
-4.92561e-07
-3.29551e-06
5.1673e-07
3.27134e-06
-5.86991e-07
-3.27233e-06
6.03623e-07
3.2557e-06
2.7174e-07
2.6087e-06
-2.87828e-07
-2.59261e-06
-5.25816e-07
-3.28116e-06
5.24485e-07
3.28249e-06
-5.96377e-07
-3.27058e-06
5.84755e-07
3.2822e-06
3.22061e-07
2.68304e-06
-3.46053e-07
-2.65905e-06
-5.35461e-07
-3.28103e-06
5.44231e-07
3.27226e-06
1.4412e-07
2.27777e-06
-2.254e-06
-1.67887e-07
2.24302e-06
1.31874e-08
-2.11209e-06
-6.33705e-07
-3.2892e-06
6.52871e-07
3.27003e-06
3.60527e-07
2.74013e-06
-3.90376e-07
-2.71028e-06
4.04553e-07
2.80879e-06
-4.12786e-07
-2.80056e-06
3.99835e-07
2.86677e-06
-4.26536e-07
-2.84007e-06
-5.36957e-07
-3.29136e-06
5.42986e-07
3.28533e-06
-3.30989e-06
-9.34624e-07
3.28577e-06
9.58752e-07
-3.31047e-06
-8.72584e-07
3.3102e-06
8.72862e-07
-3.35056e-06
-7.55915e-07
8.07183e-07
3.2993e-06
4.35754e-07
2.69929e-06
-4.22083e-07
-2.71296e-06
2.76529e-06
3.95978e-07
-2.72551e-06
-4.9213e-07
-3.32726e-06
5.46951e-07
3.27244e-06
2.91094e-06
3.98761e-07
-4.20026e-07
-2.88968e-06
2.91107e-06
4.03896e-07
-4.04019e-07
2.92208e-06
4.14088e-07
-4.251e-07
2.9164e-06
3.69838e-07
-3.64159e-07
2.92488e-06
3.34359e-07
-3.42839e-07
2.91159e-06
3.36946e-07
-3.23657e-07
2.93591e-06
3.15551e-07
-3.39873e-07
2.95655e-06
3.03856e-07
-3.24495e-07
2.97496e-06
2.96182e-07
-3.14597e-07
2.99325e-06
2.86651e-07
-3.04936e-07
3.01788e-06
2.86984e-07
-3.11617e-07
3.02673e-06
2.98544e-07
-3.07393e-07
3.03332e-06
3.05316e-07
-3.1191e-07
3.04577e-06
2.92249e-07
-3.04697e-07
3.08791e-06
2.75203e-07
-3.17343e-07
3.08382e-06
2.92147e-07
-2.88053e-07
3.09501e-06
2.98306e-07
-3.09497e-07
3.11748e-06
2.33158e-07
-2.55629e-07
3.13532e-06
2.21113e-07
-2.38955e-07
3.16158e-06
2.10032e-07
-2.36292e-07
3.15533e-06
2.32436e-07
-2.26179e-07
3.17962e-06
2.3396e-07
-2.58259e-07
3.19843e-06
2.56199e-07
-2.75005e-07
3.21913e-06
2.35278e-07
-2.55982e-07
3.23716e-06
2.35745e-07
-2.53775e-07
3.22144e-06
2.4479e-07
-2.29069e-07
3.20442e-06
2.48877e-07
-2.31858e-07
3.20692e-06
2.48083e-07
-2.50578e-07
3.19127e-06
2.24112e-07
-2.08466e-07
3.16899e-06
1.92958e-07
-1.70671e-07
3.15252e-06
1.92534e-07
-1.76064e-07
3.1591e-06
2.10057e-07
-2.16638e-07
3.17727e-06
1.67265e-07
-1.85433e-07
3.19635e-06
1.74867e-07
-1.93948e-07
3.21073e-06
2.17368e-07
-2.31749e-07
3.21719e-06
2.00555e-07
-2.07015e-07
3.25302e-06
1.85148e-07
-2.20979e-07
3.25402e-06
2.21787e-07
-2.2279e-07
3.21081e-06
2.01123e-07
-1.5791e-07
3.19753e-06
1.71227e-07
-1.57946e-07
3.17374e-06
1.27521e-07
-1.03728e-07
3.19357e-06
8.1094e-08
-1.00927e-07
3.16963e-06
4.16609e-08
-1.77213e-08
3.1653e-06
2.89173e-08
-2.45866e-08
3.2117e-06
1.46966e-08
-6.10992e-08
3.22164e-06
8.24015e-08
-9.23413e-08
3.22247e-06
1.16594e-07
-1.17419e-07
3.22166e-06
1.33041e-07
-1.3224e-07
3.21607e-06
1.08589e-07
-1.02992e-07
3.18021e-06
1.00242e-07
-6.43835e-08
3.20029e-06
4.06261e-08
-6.07094e-08
3.18354e-06
6.50286e-08
-4.82747e-08
3.194e-06
8.41095e-08
-9.45691e-08
3.17017e-06
1.13875e-07
-9.00469e-08
3.19007e-06
5.75226e-08
-7.74203e-08
3.18687e-06
5.86598e-08
-5.54589e-08
3.18872e-06
2.36268e-08
-2.54779e-08
3.16688e-06
1.22459e-08
9.59094e-09
3.19826e-06
-4.11057e-08
9.72988e-09
3.17621e-06
3.92608e-09
1.81178e-08
5.14066e-08
3.17816e-06
-5.33575e-08
8.11817e-08
-3.1724e-06
3.14263e-06
7.67405e-08
-3.14204e-06
3.14648e-06
9.52189e-08
-3.17554e-06
3.15706e-06
9.94721e-08
-3.15818e-06
3.15393e-06
1.33581e-07
-3.17946e-06
3.14535e-06
1.08638e-07
-3.13198e-06
3.15692e-06
1.3002e-07
-3.12574e-06
3.10436e-06
1.15792e-07
-3.09717e-06
3.11139e-06
1.17964e-07
-3.06246e-06
3.06029e-06
1.32468e-07
-3.08548e-06
3.07098e-06
1.17284e-07
-3.09417e-06
3.10936e-06
1.05356e-07
-3.08507e-06
3.097e-06
1.23699e-07
-3.12315e-06
3.10481e-06
1.09541e-07
-3.13262e-06
3.14677e-06
1.23164e-07
-3.15991e-06
3.14629e-06
9.8176e-08
-3.16703e-06
3.19202e-06
6.29695e-08
-3.16249e-06
3.1977e-06
4.79686e-08
-3.18022e-06
3.19522e-06
3.19121e-08
-3.1663e-06
3.18235e-06
3.52999e-08
-3.1993e-06
3.19591e-06
2.54081e-08
-3.18616e-06
3.19605e-06
2.99686e-08
-3.19146e-06
3.1869e-06
3.56116e-08
-3.19987e-06
3.19423e-06
2.60161e-08
-3.16522e-06
3.17482e-06
2.62405e-08
-3.24372e-06
3.24349e-06
4.64846e-08
-3.20074e-06
3.18049e-06
1.8651e-08
-3.16751e-06
3.19534e-06
3.76883e-08
-3.15257e-06
3.13353e-06
6.73355e-08
-3.13584e-06
3.1062e-06
5.32564e-08
-3.1048e-06
3.11888e-06
5.0542e-08
-3.09432e-06
3.09703e-06
5.57583e-08
-3.08322e-06
3.078e-06
4.78053e-08
-3.09162e-06
3.09957e-06
3.84168e-08
-3.10678e-06
3.11617e-06
-6.53332e-09
-3.1098e-06
3.15475e-06
-2.136e-08
-3.16585e-06
3.18068e-06
-2.93116e-08
-3.15387e-06
3.16183e-06
-4.64421e-08
-3.20328e-06
3.22041e-06
-6.23351e-08
-3.19487e-06
3.21076e-06
-4.87232e-08
-3.2207e-06
3.20709e-06
-3.49327e-08
-3.19702e-06
3.18323e-06
-6.27235e-08
-3.17307e-06
3.20086e-06
-4.01778e-08
-3.20486e-06
3.18231e-06
-6.77356e-08
-3.20233e-06
3.22989e-06
-4.6848e-08
-3.26868e-06
3.2478e-06
-6.53781e-08
-3.26311e-06
3.28164e-06
-7.79824e-08
-3.24353e-06
3.25614e-06
-8.24401e-08
-3.23487e-06
3.23933e-06
-8.98846e-08
-3.19119e-06
3.19863e-06
-3.18714e-06
-1.03243e-07
3.2005e-06
-3.18284e-06
1.09929e-07
-1.14224e-07
-3.16192e-06
1.16106e-07
-1.37028e-07
-3.18878e-06
1.58489e-07
-1.31632e-07
-3.16477e-06
1.58897e-07
-1.82903e-07
-3.17192e-06
1.56643e-07
-1.49496e-07
-3.17911e-06
9.18707e-08
-8.46769e-08
-3.18738e-06
1.36083e-07
-1.2782e-07
-3.18902e-06
1.15714e-07
-1.14067e-07
-3.2102e-06
1.08924e-07
-8.77454e-08
-3.23833e-06
9.98856e-08
-7.17529e-08
-3.23407e-06
8.06222e-08
-8.48877e-08
-3.28975e-06
8.97465e-08
-3.4066e-08
-3.27389e-06
3.7824e-08
-5.36859e-08
-3.295e-06
6.00076e-08
-3.889e-08
-3.24342e-06
2.26283e-08
-7.42107e-08
-3.25912e-06
1.15094e-07
-9.93997e-08
-3.21391e-06
1.36652e-07
-1.81859e-07
-3.21463e-06
1.6626e-07
-1.65535e-07
-3.19617e-06
1.44976e-07
-1.63441e-07
-3.18187e-06
1.5026e-07
-1.64555e-07
-3.17186e-06
1.47123e-07
-1.57141e-07
-3.16944e-06
1.59512e-07
-1.61928e-07
-3.16131e-06
1.52453e-07
-1.60584e-07
-3.16318e-06
1.67808e-07
-1.65936e-07
-3.16749e-06
1.68669e-07
-1.64365e-07
-3.17132e-06
1.89633e-07
-1.85802e-07
-3.14519e-06
2.0203e-07
-2.28158e-07
-3.13649e-06
2.73605e-07
-2.82309e-07
-3.10487e-06
2.707e-07
-3.02314e-07
-3.09122e-06
2.69056e-07
-2.82708e-07
-3.10875e-06
2.45891e-07
-2.28365e-07
-3.10456e-06
2.39117e-07
-2.43305e-07
-3.08155e-06
2.37185e-07
-2.60189e-07
-3.08609e-06
2.16653e-07
-2.12116e-07
-3.10528e-06
2.41526e-07
-2.22338e-07
-3.12488e-06
2.27508e-07
-2.0791e-07
-3.14489e-06
2.10797e-07
-1.90779e-07
-3.18321e-06
2.01222e-07
-1.62907e-07
-3.14739e-06
1.71371e-07
-2.07191e-07
-3.16856e-06
2.21022e-07
-1.99855e-07
-3.14706e-06
1.61376e-07
-1.82876e-07
-3.14862e-06
1.92773e-07
-1.91206e-07
-3.13673e-06
2.568e-07
-2.68691e-07
-3.13697e-06
2.76603e-07
-2.7637e-07
-3.13985e-06
2.9362e-07
-2.90732e-07
-3.13686e-06
2.93849e-07
-2.96839e-07
-3.11756e-06
2.73589e-07
-2.92892e-07
-3.07538e-06
2.55371e-07
-2.97556e-07
-3.07199e-06
3.15372e-07
-3.18757e-07
-3.05366e-06
3.26979e-07
-3.45313e-07
-3.03909e-06
3.06937e-07
-3.21506e-07
-3.04804e-06
2.6333e-07
-2.54374e-07
-3.00979e-06
2.10456e-07
-2.48706e-07
-2.96304e-06
1.30268e-07
-1.77025e-07
-2.93286e-06
1.18222e-07
-1.484e-07
2.15219e-07
-2.20848e-07
3.84602e-07
2.7403e-06
-3.99817e-07
-2.72509e-06
-5.87791e-07
-3.29688e-06
5.86348e-07
3.29832e-06
3.78098e-06
-8.04838e-07
8.08215e-07
-3.78436e-06
3.68991e-06
-8.73155e-07
9.64225e-07
3.66116e-06
-9.6664e-07
9.95393e-07
-9.56794e-07
3.68725e-06
9.30705e-07
3.66587e-07
2.76252e-06
-3.78561e-07
-2.75055e-06
-6.11555e-07
-3.45717e-06
6.56465e-07
3.41226e-06
4.56894e-06
-5.69075e-07
5.73304e-07
-4.57316e-06
-6.56174e-07
-3.45051e-06
7.30325e-07
3.37636e-06
-3.42569e-06
-7.32468e-07
7.7344e-07
3.38471e-06
-3.44688e-06
-7.80403e-07
8.01596e-07
-3.50118e-06
-7.9729e-07
8.51594e-07
-3.54208e-06
-7.96093e-07
8.36994e-07
-3.63101e-06
-7.02167e-07
7.91089e-07
-3.62132e-06
-7.82767e-07
7.73081e-07
-3.67084e-06
-7.87247e-07
8.36763e-07
-3.65193e-06
-8.2297e-07
8.04065e-07
-3.64264e-06
-8.37674e-07
8.28388e-07
-3.63124e-06
-8.32248e-07
8.20847e-07
-3.65312e-06
-8.2032e-07
8.422e-07
-3.66266e-06
-8.66204e-07
8.75743e-07
-3.73044e-06
-8.65677e-07
9.33458e-07
-3.78531e-06
-8.94137e-07
9.49006e-07
-3.78692e-06
-8.97189e-07
8.98793e-07
-3.83026e-06
-8.39873e-07
8.83221e-07
-3.86295e-06
-8.96155e-07
9.28838e-07
-3.81068e-06
-9.12902e-07
8.60638e-07
-3.81683e-06
-8.80105e-07
8.86256e-07
-3.85702e-06
-7.9284e-07
8.33027e-07
-3.87311e-06
-8.14498e-07
8.30592e-07
-3.83529e-06
-7.80119e-07
7.42294e-07
-4.28306e-06
-3.42475e-07
7.90248e-07
6.49631e-07
-5.02973e-06
9.70405e-08
-4.62402e-07
4.58188e-06
5.25114e-07
-4.64459e-06
4.54006e-06
-6.45707e-07
-4.53246e-06
6.38109e-07
2.90028e-06
3.05727e-07
-2.86499e-06
-3.41017e-07
2.85627e-06
3.14868e-07
-3.56952e-07
-2.81419e-06
4.48916e-06
-7.54164e-07
-4.47073e-06
7.35732e-07
4.42714e-06
-8.2254e-07
-4.4213e-06
8.16703e-07
4.39308e-06
-8.49841e-07
-4.40082e-06
8.57572e-07
4.41728e-06
-8.43999e-07
-4.43379e-06
8.60511e-07
-7.79023e-07
4.40193e-06
-4.42869e-06
8.05783e-07
-7.32722e-07
4.38178e-06
-4.42808e-06
4.51036e-06
-6.35791e-07
-4.52426e-06
6.49696e-07
2.7357e-06
4.1726e-07
-2.71006e-06
-4.42905e-07
-9.76443e-07
3.64694e-06
9.69218e-07
-3.63971e-06
2.71735e-06
4.23574e-07
-2.69846e-06
-4.42467e-07
-9.41579e-07
3.60859e-06
9.72037e-07
-3.63905e-06
-4.83408e-07
4.52965e-06
5.48653e-07
-4.59489e-06
2.70145e-06
4.06565e-07
-2.66544e-06
-4.42569e-07
4.42488e-06
-5.65922e-07
-4.54558e-06
6.86615e-07
4.5049e-06
-5.16138e-07
-4.59063e-06
6.01865e-07
-5.67747e-07
4.5299e-06
6.05387e-07
-4.56754e-06
4.52878e-06
-5.07211e-07
-4.58931e-06
-9.44183e-07
3.58616e-06
9.80972e-07
-3.62295e-06
3.65034e-06
-9.33801e-07
9.32708e-07
-3.64924e-06
3.61016e-06
-8.89078e-07
9.2926e-07
3.64379e-06
-8.75078e-07
8.41443e-07
3.6241e-06
-8.75926e-07
8.95612e-07
3.5513e-06
-8.15693e-07
8.885e-07
3.5161e-06
-8.58372e-07
8.9357e-07
3.4874e-06
-8.98936e-07
9.27632e-07
3.45082e-06
-8.84343e-07
9.20924e-07
3.45023e-06
-9.12317e-07
9.12913e-07
3.43978e-06
-8.68442e-07
8.78889e-07
3.38833e-06
-8.59123e-07
9.10572e-07
3.3712e-06
-9.30037e-07
9.47167e-07
3.32815e-06
-9.3551e-07
9.78563e-07
3.33425e-06
-9.26522e-07
9.20423e-07
3.28896e-06
-8.77635e-07
9.22921e-07
3.28699e-06
-8.99739e-07
9.01711e-07
3.25853e-06
-8.69404e-07
8.97869e-07
3.26346e-06
-8.54069e-07
8.49137e-07
3.26763e-06
-8.42714e-07
8.38545e-07
3.26095e-06
-8.96796e-07
9.03476e-07
3.2643e-06
-1.00516e-06
1.00181e-06
-1.01324e-06
9.67645e-07
2.69273e-06
3.98939e-07
-2.65873e-06
-4.32938e-07
2.65578e-06
3.68754e-07
-2.61848e-06
-4.06063e-07
4.8256e-06
-7.30263e-07
-4.85624e-06
7.60906e-07
2.63452e-06
3.55653e-07
-2.59409e-06
-3.96082e-07
1.17026e-07
4.1788e-06
1.22559e-07
-4.41839e-06
3.9191e-06
-4.63469e-06
-3.12987e-07
4.86437e-06
1.11315e-08
-4.56251e-06
-9.28331e-08
4.71325e-06
-4.6227e-06
2.27874e-09
4.93622e-06
-9.98372e-07
-4.79018e-06
8.52334e-07
2.61958e-06
3.57488e-07
-2.57773e-06
-3.99346e-07
-7.40642e-07
3.6775e-06
7.28143e-07
-3.665e-06
3.64397e-06
-8.47748e-07
8.50989e-07
-3.64721e-06
4.51177e-06
-5.86677e-07
-4.55385e-06
6.28758e-07
-1.34924e-06
5.06773e-06
-4.60313e-06
8.84639e-07
2.55304e-06
3.64171e-07
-2.51372e-06
-4.03493e-07
3.63082e-06
-6.98865e-07
7.38085e-07
-3.67004e-06
-7.57301e-07
3.60273e-06
8.08924e-07
-3.65435e-06
-7.35106e-07
3.66128e-06
7.34874e-07
-3.66105e-06
-6.35653e-07
3.73683e-06
6.5825e-07
-3.75943e-06
4.52712e-06
-6.54941e-07
6.83003e-07
8.39534e-07
3.69016e-06
6.43155e-07
2.49162e-06
3.70152e-07
-3.89344e-07
-7.65722e-07
3.67461e-06
-3.69425e-06
-6.43997e-07
3.67973e-06
-3.68799e-06
-6.16389e-07
3.71794e-06
-3.73688e-06
4.58816e-06
-5.97421e-07
-9.08147e-07
3.63091e-06
2.4581e-06
3.48235e-07
-9.14434e-07
3.64904e-06
-9.05021e-07
3.648e-06
-8.78632e-07
3.6459e-06
-8.41064e-07
3.63053e-06
-8.5095e-07
3.64917e-06
-6.22549e-07
3.73243e-06
-6.19117e-07
3.722e-06
-6.10736e-07
3.74026e-06
-7.31095e-07
3.67226e-06
-6.67092e-07
3.65771e-06
4.76374e-06
-5.76035e-07
-9.69347e-07
3.62603e-06
2.94068e-06
2.33746e-07
2.44042e-06
3.7305e-07
2.26399e-06
3.15386e-08
3.09973e-06
-1.71841e-07
4.437e-06
-6.5936e-07
3.00387e-06
1.52026e-07
3.25085e-06
1.50778e-06
-7.28546e-07
3.63741e-06
5.59178e-06
-7.59942e-07
3.63346e-06
5.37359e-06
-6.43492e-07
3.79445e-06
-1.78907e-08
-2.98881e-06
7.29752e-08
-2.99443e-06
-2.87026e-06
-2.0377e-07
-2.9227e-06
-1.7413e-07
-2.95718e-06
-1.76438e-07
-2.99485e-06
2.25171e-07
2.14193e-06
2.21317e-06
2.50356e-07
4.82704e-08
-3.00167e-06
-2.17028e-07
-2.99575e-06
1.46069e-07
2.19783e-06
2.52633e-07
2.26102e-06
-1.08676e-07
-3.0263e-06
3.83165e-06
-5.58285e-07
3.88003e-06
-5.33275e-07
3.80816e-06
-6.16154e-07
-2.72107e-07
-3.00335e-06
1.52149e-07
2.25861e-06
2.41169e-07
2.27652e-06
-1.75213e-07
-3.05468e-06
3.98856e-06
-4.40728e-07
-2.84599e-07
-2.97183e-06
2.27884e-07
2.32424e-06
2.94108e-07
2.30517e-06
-2.03886e-07
-3.0846e-06
-3.19759e-07
-2.99892e-06
2.3621e-07
2.35278e-06
2.42429e-06
3.6516e-07
2.39396e-06
3.34387e-07
-2.48378e-07
-3.15388e-06
-3.48419e-07
-3.02229e-06
2.42685e-07
2.38658e-06
-2.97661e-07
-3.20911e-06
4.52875e-06
-1.53023e-08
4.46488e-06
3.07664e-09
4.38252e-06
-4.28868e-08
4.29627e-06
-1.08393e-07
-3.09096e-07
4.09875e-06
-3.78886e-07
-3.03009e-06
2.43644e-07
2.41908e-06
-3.21337e-07
-3.23766e-06
-4.14764e-07
-3.08639e-06
3.09211e-07
2.47315e-06
-3.96266e-07
-3.27819e-06
-4.82942e-07
-3.18325e-06
3.56144e-07
2.50937e-06
-4.47958e-07
-3.2981e-06
-5.62851e-07
-3.20661e-06
4.05702e-07
2.55602e-06
-4.56407e-07
-3.30673e-06
-5.94211e-07
-3.25823e-06
4.22195e-07
2.61794e-06
-4.71027e-07
-3.33478e-06
-5.65898e-07
-3.25299e-06
4.11337e-07
2.60359e-06
-5.11446e-07
-3.32175e-06
-5.85178e-07
-3.25604e-06
4.13593e-07
2.63061e-06
-5.31196e-07
-3.28592e-06
-5.69372e-07
-3.26858e-06
3.31161e-07
2.62699e-06
-5.22999e-07
-3.26374e-06
-5.65218e-07
-3.26606e-06
2.59918e-07
2.61911e-06
-5.15015e-07
-3.30631e-06
-6.02635e-07
-3.26607e-06
2.77688e-07
2.65307e-06
-5.02635e-07
-3.31399e-06
2.30207e-06
1.61736e-07
-6.076e-07
-3.29669e-06
3.21005e-07
2.72256e-06
3.39082e-07
2.8056e-06
3.69549e-07
2.83908e-06
-4.68507e-07
-3.34947e-06
-3.31469e-06
-9.3041e-07
-3.33232e-06
-8.90823e-07
-3.33208e-06
-7.1303e-07
-4.60505e-07
-3.32298e-06
2.85982e-06
4.05702e-07
2.86035e-06
4.0337e-07
2.88381e-06
3.90634e-07
2.89695e-06
3.56696e-07
2.87313e-06
3.58181e-07
2.90534e-06
3.04735e-07
2.91394e-06
3.06946e-07
2.92775e-06
2.90054e-07
2.97526e-06
2.48663e-07
2.97949e-06
2.82423e-07
2.99389e-06
2.7259e-07
3.01152e-06
2.80916e-07
3.03109e-06
2.85746e-07
3.03868e-06
2.84653e-07
3.0519e-06
2.61989e-07
3.05633e-06
2.87714e-07
3.10738e-06
2.47256e-07
3.09855e-06
2.4199e-07
3.10516e-06
2.145e-07
3.13265e-06
1.82541e-07
3.15125e-06
2.13839e-07
3.17694e-06
2.08267e-07
3.20408e-06
2.2906e-07
3.20782e-06
2.31537e-07
3.21575e-06
2.27813e-07
3.25274e-06
2.07799e-07
3.24365e-06
2.57971e-07
3.22743e-06
2.64306e-07
3.21116e-06
2.40374e-07
3.17381e-06
2.30308e-07
3.17299e-06
1.93356e-07
3.16042e-06
2.22627e-07
3.1636e-06
1.64089e-07
3.14669e-06
1.91779e-07
3.20214e-06
1.61911e-07
3.22407e-06
1.78627e-07
3.21227e-06
1.96948e-07
3.25111e-06
1.82945e-07
3.23568e-06
2.16557e-07
3.2321e-06
1.74806e-07
3.21405e-06
1.45571e-07
3.18177e-06
1.13377e-07
3.15874e-06
6.46886e-08
3.16413e-06
2.35276e-08
3.16217e-06
1.66541e-08
3.18754e-06
5.70363e-08
3.18681e-06
1.17321e-07
3.19714e-06
1.22705e-07
3.19437e-06
1.1136e-07
3.20654e-06
8.80734e-08
3.17636e-06
7.08082e-08
3.17796e-06
6.34307e-08
3.18778e-06
7.42874e-08
3.21878e-06
8.28708e-08
3.19008e-06
8.62279e-08
3.20881e-06
3.99233e-08
3.20273e-06
2.97165e-08
3.20759e-06
7.37623e-09
3.19171e-06
-2.52174e-08
2.32299e-08
6.16973e-08
-3.18051e-06
6.60584e-08
-3.1799e-06
9.35258e-08
-3.18565e-06
9.81692e-08
-3.1841e-06
1.38279e-07
-3.17209e-06
1.31362e-07
-3.11883e-06
1.2981e-07
-3.09562e-06
1.49967e-07
-3.08262e-06
1.3551e-07
-3.07103e-06
1.22975e-07
-3.08164e-06
1.4201e-07
-3.1041e-06
1.19163e-07
-3.10031e-06
1.28098e-07
-3.14155e-06
1.0175e-07
-3.13356e-06
8.61408e-08
-3.15142e-06
6.25891e-08
-3.13894e-06
6.55838e-08
-3.18322e-06
5.63028e-08
-3.15702e-06
6.0094e-08
-3.20309e-06
5.46383e-08
-3.1807e-06
5.35275e-08
-3.19035e-06
3.32875e-08
-3.17963e-06
2.09388e-08
-3.15288e-06
3.4815e-08
-3.25759e-06
3.52498e-08
-3.20117e-06
2.48574e-08
-3.15712e-06
3.45024e-08
-3.16222e-06
6.24997e-08
-3.16384e-06
8.6177e-08
-3.12847e-06
9.26012e-08
-3.10074e-06
8.54614e-08
-3.07608e-06
5.36221e-08
-3.05978e-06
3.76292e-08
-3.09078e-06
4.39381e-08
-3.11611e-06
-1.83506e-08
-3.10356e-06
-2.02552e-08
-3.15197e-06
-3.05022e-08
-3.19303e-06
-5.19938e-08
-3.17337e-06
-7.91462e-08
-3.19355e-06
-6.81707e-08
-3.208e-06
-7.09286e-08
-3.17031e-06
-7.72311e-08
-3.19856e-06
-4.51349e-08
-3.23442e-06
-5.16111e-08
-3.26221e-06
-6.72555e-08
-3.24747e-06
-8.49657e-08
-3.22582e-06
-1.00793e-07
-3.21905e-06
-3.18205e-06
-3.18764e-06
1.2169e-07
-3.17508e-06
1.45932e-07
-3.1647e-06
1.48517e-07
-3.13371e-06
1.25657e-07
-3.18632e-06
1.44478e-07
-3.17955e-06
1.29308e-07
-3.19716e-06
1.33328e-07
-3.18599e-06
9.7757e-08
-3.18851e-06
1.02403e-07
-3.21671e-06
1.08826e-07
-3.20094e-06
7.39737e-08
-3.25052e-06
8.73969e-08
-3.24117e-06
5.06589e-08
-3.27608e-06
5.75448e-08
-3.2683e-06
1.07308e-07
-3.26204e-06
1.30395e-07
-3.19969e-06
1.03905e-07
-3.17833e-06
1.23624e-07
-3.16744e-06
1.39365e-07
-3.17121e-06
1.50896e-07
-3.16287e-06
1.51173e-07
-3.1448e-06
1.34383e-07
-3.13e-06
1.53003e-07
-3.16441e-06
2.03082e-07
-3.14235e-06
1.67571e-07
-3.18012e-06
2.39806e-07
-3.11987e-06
2.1335e-07
-3.12207e-06
2.729e-07
-3.08348e-06
2.30462e-07
-3.07383e-06
2.36247e-07
-3.06539e-06
2.30679e-07
-3.06227e-06
2.34063e-07
-3.07526e-06
2.29643e-07
-3.06698e-06
2.33245e-07
-3.08685e-06
2.47373e-07
-3.09721e-06
2.21165e-07
-3.13551e-06
2.39515e-07
-3.15968e-06
1.95547e-07
-3.12558e-06
1.8692e-07
-3.12486e-06
1.60651e-07
-3.14344e-06
2.11357e-07
-3.12585e-06
2.39214e-07
-3.12883e-06
2.79582e-07
-3.10869e-06
2.73478e-07
-3.10253e-06
2.87693e-07
-3.12367e-06
2.94725e-07
-3.10011e-06
2.31815e-07
-3.07725e-06
2.92511e-07
-3.03828e-06
2.88006e-07
-3.0242e-06
2.92857e-07
-3.02863e-06
2.67758e-07
-3.04867e-06
2.30502e-07
-3.02169e-06
1.03282e-07
1.00403e-07
3.46426e-07
2.73746e-06
2.74277e-06
3.68947e-07
-5.49618e-07
-3.36543e-06
3.76736e-06
-7.89614e-07
3.73074e-06
-8.36531e-07
3.69721e-06
-9.33115e-07
-9.03487e-07
3.6439e-06
3.40959e-07
2.76593e-06
-5.41437e-07
-3.367e-06
-5.96058e-07
-3.51728e-06
-3.47087e-06
-7.12109e-07
-3.51062e-06
-7.40651e-07
-3.56586e-06
-7.42052e-07
-3.61479e-06
-7.4716e-07
-3.62333e-06
-6.9363e-07
-3.68188e-06
-7.24214e-07
-3.64069e-06
-8.28446e-07
-3.65717e-06
-8.06484e-07
-3.68737e-06
-8.07479e-07
-3.70506e-06
-8.14552e-07
-3.70427e-06
-8.21108e-07
-3.70621e-06
-8.64267e-07
-3.76507e-06
-8.06822e-07
-3.77826e-06
-8.80941e-07
-3.81603e-06
-8.59425e-07
-3.81254e-06
-8.43362e-07
-3.85209e-06
-8.56607e-07
-3.83197e-06
-9.33018e-07
-3.88885e-06
-8.23226e-07
-3.87188e-06
-8.09808e-07
-3.90301e-06
-7.83367e-07
-3.95634e-06
-7.26795e-07
-3.97715e-06
-3.21664e-07
-3.97743e-06
6.49915e-07
8.34536e-07
-5.22013e-07
4.62855e-06
4.54302e-06
-5.72032e-07
2.86277e-06
2.99231e-07
2.80246e-06
2.74926e-07
4.51368e-06
-6.70228e-07
4.44406e-06
-7.71079e-07
4.38328e-06
-8.12735e-07
4.37264e-06
-8.05206e-07
-7.90214e-07
4.34815e-06
4.38024e-06
-7.88669e-07
2.73219e-06
3.9949e-07
2.73001e-06
4.04605e-07
-9.21922e-07
3.62728e-06
-4.70415e-07
4.56888e-06
2.7509e-06
3.74125e-07
4.01436e-06
-3.63012e-07
4.41591e-06
-4.76932e-07
-5.18084e-07
4.53185e-06
4.52178e-06
-5.11082e-07
4.49333e-06
-4.70895e-07
-9.24411e-07
3.58882e-06
3.60092e-06
-9.48564e-07
3.63661e-06
-9.24763e-07
3.63268e-06
-8.71145e-07
3.62914e-06
-8.72389e-07
3.59665e-06
-7.83207e-07
3.55341e-06
-8.15125e-07
3.48697e-06
-8.32502e-07
3.47041e-06
-8.67775e-07
3.45401e-06
-8.95925e-07
3.4539e-06
-8.68332e-07
3.43294e-06
-8.38164e-07
3.36762e-06
-8.64716e-07
3.3345e-06
-9.02382e-07
3.2897e-06
-8.81727e-07
3.30643e-06
-8.94364e-07
3.26115e-06
-8.54465e-07
3.2799e-06
-8.88153e-07
3.23702e-06
-8.11182e-07
3.23832e-06
-8.44015e-07
3.26701e-06
-9.25491e-07
3.27358e-06
-1.01173e-06
-1.05435e-06
2.74532e-06
3.53981e-07
2.70839e-06
3.46329e-07
2.6605e-06
3.42775e-07
3.07713e-08
4.74076e-06
7.48564e-08
4.6442e-06
4.88422e-06
-6.78263e-07
2.62797e-06
3.47266e-07
-8.12548e-07
3.65205e-06
4.47485e-06
-5.9887e-07
-1.05979e-06
5.12915e-06
2.58216e-06
3.28367e-07
-6.74681e-07
3.65332e-06
4.52366e-06
-5.83218e-07
2.51903e-06
3.3676e-07
-8.26193e-07
3.6632e-06
-6.45129e-07
3.66241e-06
-5.96607e-07
3.71705e-06
4.53674e-06
-6.03528e-07
2.49148e-06
3.36772e-07
-8.36622e-07
3.66029e-06
-6.11685e-07
3.68068e-06
-6.38459e-07
3.68931e-06
4.67113e-06
-5.04813e-07
-9.3898e-07
3.60054e-06
2.45112e-06
3.37537e-07
-9.2849e-07
3.63855e-06
-9.13874e-07
3.63338e-06
-8.82609e-07
3.61463e-06
-8.78384e-07
3.6263e-06
-8.57389e-07
3.62818e-06
-5.90185e-07
3.72601e-06
-5.75509e-07
3.70732e-06
-5.28194e-07
3.69295e-06
-6.82867e-07
3.68044e-06
-6.70533e-07
3.64538e-06
4.83529e-06
-5.27102e-07
-8.96793e-07
3.6009e-06
2.95589e-06
1.40627e-07
2.45462e-06
3.42715e-07
2.19568e-06
2.93481e-07
3.7838e-06
5.87218e-08
-1.31937e-07
-3.03331e-06
-9.82705e-08
-3.02809e-06
-2.92026e-06
-1.95941e-07
-2.94379e-06
-1.87408e-07
-2.96571e-06
-2.8626e-07
-2.896e-06
1.50322e-07
2.13767e-06
2.20339e-06
2.6241e-07
-5.32443e-08
-3.0571e-06
-6.40813e-07
3.80548e-06
-2.29844e-07
-3.03801e-06
1.57532e-07
2.19245e-06
2.35868e-07
2.26632e-06
-1.37356e-07
-3.06415e-06
3.92756e-06
-4.97285e-07
3.88283e-06
-4.88539e-07
3.84974e-06
-5.83068e-07
-2.52612e-07
-3.03534e-06
1.77562e-07
2.30894e-06
2.55922e-07
2.3147e-06
-1.88922e-07
-3.06964e-06
-2.75018e-07
-3.01657e-06
1.8481e-07
2.37564e-06
2.41388e-06
3.45242e-07
2.35438e-06
2.85176e-07
-1.94852e-07
-3.13813e-06
-3.07353e-07
-3.03999e-06
2.03475e-07
2.39199e-06
-2.70789e-07
-3.18076e-06
4.17798e-06
-1.90808e-07
-3.44214e-07
4.00224e-06
-3.37573e-07
-3.0636e-06
2.30466e-07
2.39976e-06
-3.01513e-07
-3.22894e-06
-3.2897e-07
-3.11588e-06
2.78142e-07
2.45015e-06
-3.64376e-07
-3.26955e-06
-4.0377e-07
-3.16556e-06
2.92107e-07
2.53718e-06
-4.20469e-07
-3.30567e-06
-5.31212e-07
-3.21489e-06
3.32704e-07
2.58236e-06
-4.45779e-07
-3.30873e-06
-5.36935e-07
-3.26388e-06
3.56261e-07
2.62196e-06
-4.51388e-07
-3.32637e-06
-5.17783e-07
-3.30634e-06
4.10025e-07
2.61925e-06
-4.86218e-07
-3.36001e-06
-5.70968e-07
-3.2672e-06
3.78868e-07
2.63831e-06
-5.33122e-07
-3.31982e-06
-5.43856e-07
-3.28156e-06
3.34394e-07
2.62737e-06
-4.78906e-07
-3.33001e-06
-5.61462e-07
-3.27234e-06
2.92236e-07
2.59467e-06
-4.71971e-07
-3.30678e-06
-5.9523e-07
-3.27347e-06
2.67487e-07
2.62931e-06
-4.80439e-07
-3.3285e-06
2.37242e-06
1.8001e-07
-6.1726e-07
-3.25641e-06
2.82152e-07
2.69193e-06
3.01886e-07
2.75975e-06
3.62757e-07
2.81239e-06
-4.92979e-07
-3.28952e-06
-3.30567e-06
-9.57068e-07
-3.38881e-06
-8.34101e-07
-3.32106e-06
-6.88653e-07
-5.1574e-07
-3.29424e-06
2.86429e-06
3.80487e-07
2.89496e-06
3.72704e-07
2.8894e-06
3.9619e-07
2.87993e-06
3.66165e-07
2.89601e-06
3.42106e-07
2.87737e-06
3.23368e-07
2.89772e-06
2.86597e-07
2.91212e-06
2.75658e-07
2.95747e-06
2.03315e-07
2.9801e-06
2.59792e-07
2.9696e-06
2.8309e-07
2.98187e-06
2.68641e-07
2.99766e-06
2.69957e-07
3.02441e-06
2.57903e-07
3.02384e-06
2.62559e-07
3.06396e-06
2.47593e-07
3.06652e-06
2.44696e-07
3.08045e-06
2.28061e-07
3.0917e-06
2.03248e-07
3.09995e-06
1.74296e-07
3.14194e-06
1.71847e-07
3.14047e-06
2.09732e-07
3.19075e-06
1.78789e-07
3.20525e-06
2.17031e-07
3.20322e-06
2.29849e-07
3.18666e-06
2.24358e-07
3.21742e-06
2.27211e-07
3.21823e-06
2.63489e-07
3.19356e-06
2.65048e-07
3.1945e-06
2.29371e-07
3.1896e-06
1.98252e-07
3.1607e-06
2.51529e-07
3.15413e-06
1.70655e-07
3.16452e-06
1.81389e-07
3.16106e-06
1.6537e-07
3.18829e-06
1.51397e-07
3.2154e-06
1.69841e-07
3.18889e-06
2.09454e-07
3.22409e-06
1.81364e-07
3.20544e-06
1.93449e-07
3.18307e-06
1.67942e-07
3.19001e-06
1.06436e-07
3.18572e-06
6.89785e-08
3.15511e-06
5.41439e-08
3.13177e-06
3.99937e-08
3.15336e-06
3.5444e-08
3.17941e-06
9.12704e-08
3.21007e-06
9.20459e-08
3.2152e-06
1.06226e-07
3.19721e-06
1.06067e-07
3.16658e-06
1.01436e-07
3.17791e-06
5.20988e-08
3.1908e-06
6.13992e-08
3.21495e-06
5.87203e-08
3.24441e-06
5.67729e-08
3.22364e-06
6.0687e-08
3.20044e-06
5.29177e-08
3.19531e-06
1.25046e-08
-1.04116e-08
5.49389e-08
-3.24525e-06
9.476e-08
-3.22547e-06
1.16892e-07
-3.20623e-06
8.69818e-08
-3.14218e-06
1.12247e-07
-3.14409e-06
1.35907e-07
-3.11928e-06
1.50286e-07
-3.097e-06
1.53331e-07
-3.07407e-06
1.24513e-07
-3.05282e-06
9.99347e-08
-3.07952e-06
1.11921e-07
-3.11229e-06
9.34723e-08
-3.1231e-06
1.10333e-07
-3.15043e-06
9.71877e-08
-3.13828e-06
1.09708e-07
-3.15146e-06
7.22969e-08
-3.1458e-06
8.79146e-08
-3.17263e-06
5.83841e-08
-3.17356e-06
4.80972e-08
-3.17042e-06
4.04414e-08
-3.18269e-06
4.9509e-08
-3.1887e-06
1.47398e-08
-3.11811e-06
3.18458e-08
-3.2747e-06
2.72825e-08
-3.19661e-06
2.77738e-08
-3.15761e-06
3.42391e-08
-3.16868e-06
3.03986e-08
-3.16e-06
3.46395e-08
-3.13272e-06
4.9602e-08
-3.1157e-06
7.84955e-08
-3.10497e-06
8.3964e-08
-3.06525e-06
5.10422e-08
-3.05786e-06
2.29251e-08
-3.08799e-06
3.6078e-08
-3.11672e-06
1.54229e-08
-3.13131e-06
-7.93986e-09