/*--------------------------------*- C++ -*----------------------------------*\
| =========                 |                                                 |
| \\      /  F ield         | OpenFOAM: The Open Source CFD Toolbox           |
|  \\    /   O peration     | Version:  v1612+                                |
|   \\  /    A nd           | Web:      www.OpenFOAM.com                      |
|    \\/     M anipulation  |                                                 |
\*---------------------------------------------------------------------------*/
FoamFile
{
    version     2.0;
    format      ascii;
    class       volVectorField;
    location    "0.1";
    object      U;
}
// * * * * * * * * * * * * * * * * * * * * * * * * * * * * * * * * * * * * * //

dimensions      [0 1 -1 0 0 0 0];

internalField   nonuniform List<vector> 
113025
(
(0.358198 0.00534993 0)
(0.373766 -0.00303624 1.08331e-21)
(0.305333 -0.0672259 8.43202e-22)
(0.187241 -0.0273207 -2.8053e-23)
(0.302804 -0.063998 -4.25138e-22)
(0.301886 -0.0603847 -8.52847e-22)
(0.305098 -0.0590876 8.72625e-22)
(0.308144 -0.0559261 0)
(0.304698 -0.0542313 1.13469e-21)
(0.321307 -0.0377482 0)
(0.323581 -0.0349944 -1.32686e-23)
(0.324292 -0.0325029 0)
(0.318087 -0.0454333 0)
(0.318231 -0.0423619 0)
(0.363184 0.00335238 -3.8745e-23)
(0.29676 -0.0631955 0)
(0.223637 -0.0327527 -2.09954e-24)
(0.184065 -0.0260655 -2.17342e-23)
(0.152815 0.00305798 -3.13894e-23)
(0.314085 0.0456887 8.53398e-21)
(0.34106 -0.0260043 8.39465e-22)
(0.31703 0.0457731 -7.81252e-22)
(0.351322 -0.0280379 7.96127e-22)
(0.339217 -0.0222182 -1.60496e-21)
(0.344837 -0.0273556 -9.22546e-24)
(0.209618 -0.0052306 -2.29975e-21)
(0.209403 -0.00263421 2.31227e-21)
(0.215977 -0.00526685 6.07775e-22)
(0.210898 -0.0188812 6.00645e-22)
(0.21135 -0.012134 -4.53134e-22)
(0.213952 -0.00870703 -1.51025e-22)
(0.159769 0.0069162 9.66005e-23)
(0.160169 -0.0106536 3.11888e-23)
(0.213837 -0.000701988 -2.32025e-21)
(0.214042 -0.0172925 8.25357e-23)
(0.163094 0.00928247 -2.44634e-23)
(0.163079 -0.0158044 -4.7022e-23)
(0.218041 0.00125498 -2.79323e-22)
(0.216179 -0.0234187 3.61655e-23)
(0.165109 0.0129297 -5.72444e-23)
(0.16554 -0.0156574 -1.10343e-22)
(0.220608 0.00379063 0)
(0.345227 -0.0225526 0)
(0.216663 -0.0252841 7.27684e-23)
(0.169244 0.0141568 -3.14832e-23)
(0.170537 -0.0183277 2.33928e-23)
(0.223877 0.00563263 -6.84115e-22)
(0.349917 -0.020821 -8.80884e-22)
(0.220887 -0.0275471 -7.28278e-23)
(0.172667 0.017218 3.12369e-23)
(0.174411 -0.0208371 -3.79737e-23)
(0.226601 0.00782257 -5.13013e-22)
(0.223223 -0.0302795 2.16447e-22)
(0.175451 0.0187956 1.53148e-23)
(0.18054 -0.0248287 1.18491e-22)
(0.177254 -0.0221251 0)
(0.229264 0.00969411 -6.66619e-23)
(0.225449 -0.0320784 2.77495e-25)
(0.179295 0.0210065 0)
(0.232241 0.0121189 1.06063e-21)
(0.363841 -0.0158057 5.45302e-22)
(0.36143 -0.0177005 -5.71779e-22)
(0.358417 -0.0194649 6.14691e-22)
(0.353199 -0.0183191 -1.27291e-21)
(0.35403 -0.0205467 6.17423e-22)
(0.228098 -0.0337068 1.4079e-22)
(0.182282 0.0221725 0)
(0.235178 0.014209 0)
(0.230985 -0.0352891 6.8955e-23)
(0.185456 0.0240816 5.61455e-23)
(0.237757 0.0153618 -1.57194e-21)
(0.23246 -0.0370922 1.34838e-22)
(0.188907 0.0250483 1.54347e-25)
(0.24039 0.0175484 5.19461e-22)
(0.235353 -0.0403734 0)
(0.191825 0.0263564 9.91292e-24)
(0.24273 0.0193813 -1.53198e-21)
(0.236659 -0.0407231 -6.45833e-23)
(0.194529 0.0271653 -3.72742e-23)
(0.245495 0.0214886 -5.03787e-22)
(0.24023 -0.0435884 -6.38633e-23)
(0.197911 0.0281376 -1.26195e-23)
(0.248066 0.0230808 -5.03994e-22)
(0.241532 -0.0447458 1.2667e-22)
(0.200436 0.0281925 -2.10251e-23)
(0.249858 0.0248963 5.01175e-22)
(0.242761 -0.0466116 1.26152e-22)
(0.203223 0.0299848 1.42642e-24)
(0.252317 0.0261259 5.03365e-22)
(0.244812 -0.0490747 -6.34226e-23)
(0.205825 0.0291292 -4.93888e-23)
(0.254319 0.0283269 5.04932e-22)
(0.246849 -0.0508286 3.15727e-23)
(0.20798 0.0292969 1.32884e-23)
(0.25652 0.0300055 0)
(0.159565 -0.00882517 -6.09104e-23)
(0.161419 -0.0092071 -6.02943e-26)
(0.247885 -0.0520086 3.16739e-23)
(0.210329 0.0299267 -8.99889e-24)
(0.212787 0.0296257 -2.06364e-24)
(0.215099 0.0301617 -8.79841e-24)
(0.257403 0.030752 1.00483e-21)
(0.252992 -0.0582358 -4.64698e-23)
(0.251445 -0.0565957 1.25807e-22)
(0.249711 -0.0542261 0)
(0.213785 -0.0341853 4.21919e-23)
(0.212765 -0.0330714 0)
(0.259428 0.032877 2.46735e-22)
(0.217307 0.0295469 0)
(0.218367 0.0285779 0)
(0.219452 0.0275616 -1.61591e-23)
(0.22022 0.0265898 -1.99912e-24)
(0.221202 0.0257675 2.0115e-24)
(0.222148 0.0247508 0)
(0.223081 0.0237074 0)
(0.223804 0.022904 0)
(0.224252 0.0222871 1.92476e-24)
(0.224932 0.0212941 0)
(0.225788 0.020741 7.24263e-24)
(0.226637 0.0203102 -5.40987e-24)
(0.227449 0.019326 1.56963e-23)
(0.228363 0.0185219 1.02503e-23)
(0.229128 0.018008 0)
(0.229578 0.0174861 -1.24029e-23)
(0.230206 0.0170542 2.52487e-23)
(0.231094 0.0164774 9.02891e-24)
(0.231615 0.01575 -2.47774e-23)
(0.231994 0.0147914 2.31454e-23)
(0.232643 0.014476 -5.72032e-24)
(0.233158 0.0138905 -1.10055e-23)
(0.23353 0.0129689 2.69391e-23)
(0.234007 0.0125253 -3.2374e-23)
(0.23452 0.0126503 -1.32355e-25)
(0.235092 0.0128413 5.27665e-24)
(0.235688 0.0123995 2.33994e-23)
(0.236087 0.0116736 1.80027e-23)
(0.236523 0.0110362 0)
(0.237135 0.0105285 4.8782e-24)
(0.237395 0.0103555 -5.06318e-24)
(0.237643 0.0103106 -9.32161e-24)
(0.238102 0.0100993 9.55851e-26)
(0.238437 0.00947174 -6.69977e-24)
(0.238728 0.00894678 3.1785e-24)
(0.239141 0.00856198 8.28687e-24)
(0.239444 0.00836972 2.10129e-24)
(0.239608 0.00811338 -6.24383e-24)
(0.239993 0.00759953 1.23287e-23)
(0.24021 0.00739175 8.25165e-24)
(0.240512 0.00726413 -9.93565e-25)
(0.241002 0.0071193 -5.07333e-25)
(0.241218 0.00693871 -1.15627e-23)
(0.241596 0.00663042 1.42678e-25)
(0.241814 0.00658231 -1.87308e-24)
(0.24221 0.00631039 2.30717e-24)
(0.242573 0.00579591 1.77044e-24)
(0.24272 0.00548721 0)
(0.242926 0.00548348 0)
(0.242959 0.00532585 0)
(0.243074 0.00542705 -3.31565e-24)
(0.243271 0.00538002 0)
(0.243454 0.00499177 -1.56553e-23)
(0.243685 0.00501609 1.27179e-23)
(0.243953 0.00491798 1.52735e-24)
(0.244301 0.00462451 -3.69633e-25)
(0.244472 0.00461449 -2.92067e-24)
(0.244701 0.00446857 -2.82794e-24)
(0.244773 0.00419313 -4.36405e-26)
(0.244846 0.00406065 -5.50609e-24)
(0.245183 0.00417334 -1.32603e-24)
(0.245016 0.00323224 0)
(0.244451 0.00393546 -2.12813e-24)
(0.244699 0.00291501 7.1652e-25)
(0.24468 0.00318509 0)
(0.244426 0.00303646 0)
(0.244311 0.00277812 3.05846e-24)
(0.244171 0.00284415 0)
(0.244416 0.00216461 0)
(0.243981 0.0025853 3.20182e-24)
(0.244047 0.00166812 -1.95243e-23)
(0.243734 0.0020942 1.61353e-23)
(0.243953 0.00124727 0)
(0.24379 0.00159582 0)
(0.24361 0.00132968 0)
(0.243544 0.00134992 0)
(0.243886 0.000700299 0)
(0.243329 0.000910661 0)
(0.243579 0.000143489 7.76697e-24)
(0.243416 0.000410982 0)
(0.243714 -0.000279238 -9.61266e-26)
(0.243464 7.28831e-05 -1.58397e-24)
(0.243553 -0.0011396 -1.99358e-25)
(0.243717 0.000246823 -6.40976e-24)
(0.241284 -0.0013888 1.58973e-24)
(0.24713 -0.00141453 -3.23359e-24)
(0.24371 3.97887e-05 3.27198e-24)
(0.243405 -0.0018432 3.29439e-24)
(0.243166 -0.00158644 -3.23549e-24)
(0.243105 -0.00209314 1.33138e-23)
(0.244071 -0.0021954 -1.33287e-23)
(0.243335 -0.00261101 0)
(0.243607 -0.00254381 0)
(0.243997 -0.00298323 -6.56221e-24)
(0.243881 -0.00259785 9.78316e-24)
(0.243929 -0.00338187 3.62719e-26)
(0.244142 -0.00306114 -1.61847e-24)
(0.244052 -0.00381463 7.85869e-24)
(0.244375 -0.00343612 -4.57507e-24)
(0.244467 -0.00400016 0)
(0.244465 -0.0041195 -7.42958e-25)
(0.244392 -0.00439669 3.01164e-24)
(0.244868 -0.00434468 0)
(0.24471 -0.00467054 0)
(0.245004 -0.00451758 -7.21852e-25)
(0.24515 -0.00497421 -1.60075e-24)
(0.245105 -0.00507554 1.24326e-24)
(0.245657 -0.00533499 1.74878e-25)
(0.245505 -0.0054434 0)
(0.245539 -0.00591057 -5.34665e-24)
(0.245911 -0.00537125 -7.82683e-24)
(0.245654 -0.00557793 8.17769e-24)
(0.245496 -0.00596752 -8.14964e-24)
(0.245364 -0.00640234 2.7688e-24)
(0.245194 -0.00661507 5.545e-24)
(0.245114 -0.00641147 0)
(0.244968 -0.00669199 0)
(0.244944 -0.00719791 9.15942e-24)
(0.24456 -0.00726628 -1.38284e-23)
(0.244119 -0.00734823 1.56952e-24)
(0.243918 -0.0076451 2.56673e-23)
(0.243595 -0.00829569 -3.53487e-23)
(0.243502 -0.00839658 1.93812e-23)
(0.243471 -0.00849335 0)
(0.24321 -0.00872342 2.7133e-23)
(0.242833 -0.00885314 -2.05014e-23)
(0.242613 -0.00923068 -3.48094e-24)
(0.242461 -0.00967046 7.15375e-24)
(0.242205 -0.0100761 0)
(0.241953 -0.0100446 1.46011e-23)
(0.24172 -0.0103878 -1.06696e-23)
(0.241532 -0.0106738 -7.14178e-24)
(0.241127 -0.0108602 -4.22954e-24)
(0.240875 -0.0112701 5.33892e-25)
(0.24048 -0.0114896 1.11503e-23)
(0.239887 -0.0116573 -1.41247e-23)
(0.239554 -0.0122462 9.32942e-24)
(0.239219 -0.0130895 4.60067e-24)
(0.239123 -0.0137366 1.94413e-23)
(0.238829 -0.0141307 -1.54011e-25)
(0.238514 -0.0146891 1.5536e-23)
(0.238222 -0.0150603 5.33655e-24)
(0.237722 -0.0155912 -5.27901e-24)
(0.237274 -0.0158317 -5.49012e-24)
(0.236745 -0.0162108 5.54699e-24)
(0.236283 -0.0164824 6.7999e-25)
(0.235924 -0.0168431 1.41511e-24)
(0.235106 -0.0173301 6.15486e-26)
(0.234492 -0.0177701 -2.82318e-24)
(0.234218 -0.0183921 3.10466e-24)
(0.233734 -0.0191547 2.88384e-24)
(0.233417 -0.019699 -1.19933e-23)
(0.233086 -0.0204552 1.20615e-23)
(0.232529 -0.021204 3.18318e-24)
(0.231888 -0.0215884 0)
(0.23119 -0.0224323 2.42454e-24)
(0.230629 -0.023329 -6.62107e-24)
(0.230212 -0.0238151 1.35125e-23)
(0.229747 -0.0244841 -3.49251e-24)
(0.22908 -0.0251525 -9.11249e-25)
(0.228571 -0.0259289 9.42293e-25)
(0.2279 -0.0270264 -3.6487e-24)
(0.227022 -0.0279693 2.32673e-23)
(0.226537 -0.0285512 -1.52733e-23)
(0.225846 -0.0293636 -8.3113e-23)
(0.224897 -0.0305739 -6.49038e-23)
(0.224324 -0.0316412 3.37743e-23)
(0.215708 -0.0347704 -2.06231e-23)
(0.260933 0.0338689 -2.79529e-24)
(0.332636 -0.027851 1.70371e-21)
(0.336418 -0.0284464 8.94301e-24)
(0.330484 -0.026157 -1.77906e-21)
(0.327619 -0.0262758 1.79666e-21)
(0.217697 -0.0326408 1.91487e-23)
(0.270482 0.0338003 4.80477e-22)
(0.334212 0.0283767 3.43097e-22)
(0.26662 0.0370137 -4.62935e-22)
(0.266006 0.0399887 1.82661e-21)
(0.267513 0.0402385 -4.4504e-22)
(0.269415 0.0401361 -2.19119e-21)
(0.27219 0.0391719 8.6547e-22)
(0.275367 0.0377172 8.58778e-22)
(0.278728 0.0365368 -4.27033e-22)
(0.280985 0.0365756 8.50671e-22)
(0.281882 0.0369341 -1.2623e-21)
(0.281882 0.0378269 -8.38809e-22)
(0.282349 0.0392089 0)
(0.283919 0.040663 0)
(0.286267 0.041337 8.06533e-22)
(0.288923 0.0406195 0)
(0.291215 0.0395916 7.86679e-22)
(0.29334 0.0392489 1.55462e-21)
(0.294717 0.0400649 -4.76741e-23)
(0.296668 0.0422627 4.6109e-23)
(0.298787 0.0438038 7.74351e-22)
(0.300717 0.0430865 -2.35381e-23)
(0.302526 0.0425544 3.67463e-22)
(0.304835 0.0438934 -4.01548e-23)
(0.307353 0.0457477 4.64627e-23)
(0.309066 0.0459326 0)
(0.310421 0.0447586 1.92181e-21)
(0.331778 0.0313562 1.57119e-24)
(0.3374 0.0256028 1.70739e-22)
(0.221815 -0.0326476 -1.49274e-23)
(0.220413 -0.0333616 1.78276e-23)
(0.339906 0.0239585 0)
(0.342351 0.0220258 -7.98981e-22)
(0.345616 0.020028 1.44133e-21)
(0.347648 0.0181532 1.25943e-21)
(0.350244 0.0152339 0)
(0.350299 0.0123335 -3.76099e-22)
(0.35164 0.0112043 0)
(0.209804 -0.0314751 0)
(0.299016 -0.0688987 0)
(0.208828 -0.0319902 4.58259e-23)
(0.294811 -0.0687122 2.14279e-22)
(0.328472 0.0342855 1.12828e-24)
(0.205087 -0.030566 1.20818e-23)
(0.320721 0.0430473 -5.54246e-22)
(0.322827 0.0399309 1.79786e-22)
(0.325521 0.0377456 -1.68214e-22)
(0.326322 0.0360514 -3.38563e-22)
(0.291493 -0.0684664 0)
(0.288959 -0.0712956 -4.16099e-22)
(0.287671 -0.069438 -2.70147e-23)
(0.284926 -0.0681507 0)
(0.283625 -0.0683307 5.47887e-23)
(0.282115 -0.0665624 0)
(0.279966 -0.0662445 0)
(0.278909 -0.0659201 9.03312e-22)
(0.276843 -0.0637617 -2.23404e-22)
(0.274486 -0.0641069 -4.5519e-22)
(0.273471 -0.0640041 9.0507e-22)
(0.271677 -0.0622356 -6.88178e-22)
(0.269699 -0.0622564 2.31437e-22)
(0.268632 -0.061903 2.3324e-22)
(0.26671 -0.0602097 0)
(0.26487 -0.0601317 4.6731e-22)
(0.263827 -0.0603464 0)
(0.26214 -0.059272 0)
(0.260257 -0.0583819 5.88662e-23)
(0.258952 -0.0586576 -3.00688e-22)
(0.257261 -0.0589415 -4.82968e-22)
(0.256133 -0.0577071 0)
(0.254589 -0.0576404 3.10096e-23)
(0.204172 -0.0301541 1.23873e-23)
(0.200356 -0.0307012 -1.89606e-23)
(0.361861 0.00272913 3.72902e-23)
(0.198285 -0.0291371 0)
(0.367635 -0.0085281 -9.92839e-22)
(0.374078 -0.00584119 -1.15455e-21)
(0.373418 -0.0114161 0)
(0.367748 -0.0137082 -2.62459e-22)
(0.366112 0.00093643 -3.54609e-23)
(0.195356 -0.0282062 0)
(0.311168 -0.0501029 -2.20953e-22)
(0.330916 -0.0292837 -8.76588e-24)
(0.356283 0.00844496 0)
(0.368241 -0.00196759 -1.12008e-21)
(0.191954 -0.0276361 -9.98014e-24)
(0.310423 -0.0500802 -8.98989e-22)
(0.305361 -0.0533789 -2.29218e-22)
(0.319383 -0.0300461 1.85448e-21)
(0.320874 -0.0407242 0)
(0.358597 0.00860388 -5.05432e-22)
(0.373268 -0.0041385 6.69722e-22)
(0.189561 -0.0265376 1.38459e-23)
(0.305368 -0.0525794 -2.24766e-22)
(0.324846 -0.0306313 0)
(0.317312 -0.0407911 8.61495e-22)
(0.359569 0.00576575 6.39536e-22)
(0.298416 -0.0614769 2.14042e-22)
(0.186514 -0.0251562 -7.00789e-24)
(0.301671 -0.0607855 -2.14704e-22)
(0.304249 -0.0604988 8.71472e-22)
(0.302596 -0.0581965 1.10611e-23)
(0.300913 -0.0560644 0)
(0.304319 -0.0533547 1.10472e-23)
(0.320187 -0.0383224 0)
(0.318035 -0.0366927 1.32929e-21)
(0.317293 -0.0347948 1.79373e-21)
(0.312347 -0.0454641 -4.39391e-22)
(0.312568 -0.0448212 1.30616e-21)
(0.363883 0.00227552 -1.14343e-22)
(0.300831 -0.067557 -4.28559e-22)
(0.22258 -0.0317355 -3.30385e-23)
(0.182952 -0.0235819 -4.6133e-25)
(0.155063 -0.00222109 0)
(0.31593 0.0424236 1.80243e-21)
(0.350806 0.0107989 3.7328e-22)
(0.223323 -0.0307339 -3.34101e-23)
(0.370634 -0.00883664 -4.96299e-21)
(0.320267 -0.0266178 9.24569e-22)
(0.368602 -0.00623453 4.63854e-21)
(0.309746 -0.047478 -6.90947e-22)
(0.377589 -0.00947264 0)
(0.336147 -0.0232266 8.38439e-22)
(0.211665 -0.00668688 0)
(0.212658 -0.00334612 6.04174e-22)
(0.211472 -0.00300232 -6.00497e-22)
(0.213122 -0.0176539 -1.47442e-22)
(0.21549 -0.0113824 1.49561e-22)
(0.218145 -0.0124629 1.53316e-22)
(0.160698 0.00870791 6.54836e-23)
(0.161001 -0.00737075 -3.16234e-23)
(0.218147 -0.00091066 2.51603e-21)
(0.218517 -0.0167301 -1.43913e-22)
(0.164816 0.00868437 1.8926e-24)
(0.167518 -0.0140294 1.5719e-22)
(0.219754 0.000984712 -5.42214e-22)
(0.349921 -0.0256134 3.91982e-22)
(0.339017 -0.0195568 0)
(0.345171 -0.0255471 8.19728e-22)
(0.21919 -0.0231319 0)
(0.168823 0.0117604 8.12132e-24)
(0.168825 -0.0157805 4.74264e-23)
(0.223846 0.00299736 1.08466e-21)
(0.350633 -0.0203093 -7.46837e-22)
(0.21915 -0.025192 -3.60918e-22)
(0.17221 0.0135007 2.84545e-25)
(0.172915 -0.0179705 -7.05373e-23)
(0.226107 0.00547443 1.22454e-21)
(0.223286 -0.0276194 -4.32507e-22)
(0.175204 0.0166717 4.72994e-23)
(0.179929 -0.0213096 -1.19832e-22)
(0.176886 -0.0202701 6.87954e-23)
(0.229174 0.00757976 -1.3401e-22)
(0.225525 -0.0301546 -7.15658e-23)
(0.178088 0.0181521 -1.53141e-23)
(0.232 0.009409 6.58614e-23)
(0.364449 -0.0182651 2.88341e-22)
(0.359998 -0.0163951 0)
(0.359164 -0.0174528 -3.11901e-22)
(0.356433 -0.0146157 8.23832e-22)
(0.344833 -0.019455 1.74304e-22)
(0.227819 -0.0318684 -2.10905e-22)
(0.181596 0.0200627 0)
(0.234683 0.0112732 0)
(0.229899 -0.0330654 -1.73639e-23)
(0.184762 0.0213522 3.00829e-23)
(0.237301 0.0136366 5.1587e-22)
(0.233328 -0.03542 -4.74867e-22)
(0.187713 0.0230463 0)
(0.23989 0.0155158 4.12187e-24)
(0.234806 -0.0364905 -1.33379e-22)
(0.190984 0.0241801 6.78281e-23)
(0.24264 0.0172621 -4.53342e-24)
(0.237252 -0.0401745 -2.59709e-22)
(0.193846 0.0253706 -5.51446e-23)
(0.245053 0.0189658 1.0099e-21)
(0.238388 -0.0413244 -2.56885e-22)
(0.196325 0.0259565 2.46469e-23)
(0.247395 0.0209668 -2.23005e-24)
(0.241735 -0.043208 0)
(0.199677 0.0274186 -3.13577e-25)
(0.24995 0.0225826 5.028e-22)
(0.242705 -0.0448855 -9.41792e-25)
(0.202112 0.0269152 1.19109e-23)
(0.251712 0.0242995 -7.87812e-25)
(0.244376 -0.0469049 -3.1714e-23)
(0.204789 0.0282939 4.76914e-23)
(0.254612 0.0259222 -4.97335e-22)
(0.246456 -0.0494528 6.35954e-23)
(0.207223 0.028292 5.54467e-24)
(0.256397 0.0279673 0)
(0.160519 -0.00920895 2.65737e-23)
(0.248166 -0.050692 -2.84573e-22)
(0.209352 0.0282189 1.79877e-23)
(0.211577 0.0287917 -1.24601e-24)
(0.213928 0.0286387 -6.95678e-24)
(0.258137 0.0296962 -9.98987e-22)
(0.253147 -0.0560282 0)
(0.251549 -0.0549192 -1.2494e-22)
(0.249922 -0.051907 -5.05915e-22)
(0.259112 0.030497 2.48763e-22)
(0.216083 0.0290429 0)
(0.217104 0.0278963 0)
(0.218323 0.0270361 1.54781e-23)
(0.219434 0.0259925 3.14894e-24)
(0.220303 0.0249355 -1.04203e-24)
(0.221346 0.023976 0)
(0.222251 0.0233171 0)
(0.222983 0.022515 0)
(0.223931 0.0214491 -9.55191e-24)
(0.224533 0.0208009 1.56156e-23)
(0.224988 0.0197999 1.50468e-23)
(0.225886 0.0190062 -1.49087e-23)
(0.226855 0.018606 -2.87334e-23)
(0.227505 0.0180995 7.34258e-26)
(0.22814 0.0173986 -2.04978e-23)
(0.228863 0.0168036 -6.39857e-24)
(0.229537 0.0159122 0)
(0.230129 0.0153091 -9.38036e-24)
(0.230807 0.0151799 1.49758e-24)
(0.231532 0.0148162 -2.98747e-24)
(0.23201 0.0142038 5.72568e-24)
(0.232677 0.0137535 -5.74874e-24)
(0.233266 0.0136119 0)
(0.23366 0.0129591 1.08516e-23)
(0.234197 0.0120179 1.33651e-23)
(0.2347 0.0110127 -2.58711e-24)
(0.235199 0.0108364 -2.03244e-23)
(0.235724 0.0108725 -4.11834e-23)
(0.236277 0.0106946 -2.05636e-23)
(0.236554 0.0103826 1.78366e-23)
(0.236852 0.0101086 2.3075e-24)
(0.237451 0.00938067 -9.6681e-24)
(0.237856 0.00894943 -4.86673e-24)
(0.238322 0.00889002 9.50195e-24)
(0.238802 0.00882297 -1.8079e-23)
(0.239012 0.00843852 -8.8083e-24)
(0.239304 0.0081855 1.08048e-24)
(0.239668 0.00777052 -1.0816e-24)
(0.239991 0.00762843 0)
(0.240161 0.00717676 -4.08592e-24)
(0.240283 0.00686746 2.08162e-24)
(0.240518 0.00661096 3.00519e-24)
(0.240852 0.00650142 4.42648e-24)
(0.241213 0.00650426 -4.35865e-24)
(0.241571 0.00607927 -7.71297e-24)
(0.241973 0.00591395 1.17683e-23)
(0.242272 0.00607342 -1.48297e-23)
(0.242501 0.00602717 1.46571e-23)
(0.242688 0.00578368 0)
(0.242878 0.00548239 0)
(0.24295 0.00510483 3.29563e-24)
(0.243103 0.004716 0)
(0.243282 0.00471492 0)
(0.243522 0.00433904 0)
(0.243696 0.0041427 1.23743e-23)
(0.243897 0.00419277 -1.23092e-23)
(0.244281 0.00383592 8.77146e-24)
(0.244468 0.00375395 -8.76746e-24)
(0.244643 0.00386536 -7.31091e-26)
(0.244922 0.00361233 2.76616e-24)
(0.24442 0.00365162 1.3871e-24)
(0.244256 0.00342477 7.18166e-25)
(0.244767 0.0030293 7.43862e-25)
(0.244304 0.00318719 1.50735e-24)
(0.244252 0.00268536 9.33014e-24)
(0.24391 0.00320631 -1.25266e-23)
(0.24416 0.00218908 1.29107e-23)
(0.243921 0.0025846 -1.29197e-23)
(0.24369 0.00193537 6.50466e-24)
(0.243492 0.0020383 -6.54119e-24)
(0.243619 0.00156736 0)
(0.243849 0.00144593 1.32525e-23)
(0.243414 0.00140163 -1.30878e-23)
(0.243316 0.0013118 -6.56173e-24)
(0.243517 0.000906674 1.38477e-23)
(0.243165 0.00050498 -3.2181e-24)
(0.243359 0.000570328 -7.7787e-25)
(0.243086 9.07159e-05 -6.42982e-24)
(0.243628 5.80707e-05 7.13161e-24)
(0.243103 -7.30223e-05 1.58334e-24)
(0.243523 -0.000837723 1.98884e-25)
(0.24379 -0.0001116 3.21732e-24)
(0.240437 -0.000936057 4.90684e-24)
(0.247928 -0.00185568 4.90463e-24)
(0.243383 0.000424395 -3.28228e-24)
(0.242591 -0.00231286 0)
(0.243133 -0.00161614 0)
(0.242868 -0.00211835 0)
(0.24364 -0.00241185 1.36133e-23)
(0.243229 -0.00269054 -1.36234e-23)
(0.243523 -0.00244205 -1.34956e-23)
(0.243791 -0.00294629 1.68711e-23)
(0.243558 -0.00295685 -6.24728e-24)
(0.243776 -0.0033913 3.31535e-24)
(0.243913 -0.00332688 3.27962e-24)
(0.243767 -0.00369188 -6.45879e-24)
(0.244336 -0.00370726 0)
(0.244129 -0.00410131 0)
(0.244129 -0.00420773 0)
(0.244375 -0.00437455 -4.66673e-24)
(0.244713 -0.00455181 -1.33153e-26)
(0.244445 -0.00469179 -1.49783e-24)
(0.244897 -0.00473066 -4.64685e-27)
(0.244944 -0.00520488 1.79506e-25)
(0.244982 -0.00511718 -2.88878e-24)
(0.245371 -0.00556196 -7.02029e-25)
(0.245285 -0.00553496 2.0813e-24)
(0.245672 -0.00606401 -1.38601e-24)
(0.245579 -0.00615081 -8.44047e-24)
(0.24524 -0.00623801 5.64727e-24)
(0.244952 -0.00625068 1.74287e-23)
(0.244831 -0.0067533 -1.17628e-23)
(0.244728 -0.00693563 1.22558e-23)
(0.244433 -0.00672691 -9.13252e-24)
(0.244103 -0.00695791 0)
(0.243885 -0.00734189 1.2937e-23)
(0.243721 -0.00759434 -2.60556e-23)
(0.243585 -0.00750628 2.28333e-23)
(0.243397 -0.00795316 -3.10511e-24)
(0.243185 -0.00807363 -1.34583e-23)
(0.243091 -0.00824493 -6.85887e-24)
(0.242858 -0.00869863 -2.1286e-23)
(0.242552 -0.00907625 2.85319e-23)
(0.242212 -0.00935447 -1.44251e-23)
(0.241621 -0.0094219 0)
(0.241382 -0.010054 9.65437e-25)
(0.241261 -0.01025 -1.52919e-23)
(0.240963 -0.0103943 1.6564e-23)
(0.240789 -0.0108021 1.9502e-23)
(0.240346 -0.0111591 -1.63944e-23)
(0.240006 -0.0114944 7.45188e-24)
(0.239756 -0.0118054 -9.10357e-24)
(0.239551 -0.0120935 -3.51096e-24)
(0.239205 -0.012234 -1.00909e-25)
(0.238701 -0.0124715 4.90914e-24)
(0.238233 -0.0127417 -2.06137e-23)
(0.237667 -0.0130975 -9.02526e-24)
(0.237101 -0.0134772 -1.18326e-23)
(0.236825 -0.0137233 5.44687e-24)
(0.236595 -0.0142754 5.64454e-24)
(0.236409 -0.0147377 -1.09612e-23)
(0.23613 -0.0153521 0)
(0.235644 -0.0158061 7.27977e-24)
(0.235156 -0.0162819 -1.2523e-23)
(0.234686 -0.0169927 5.8842e-24)
(0.234057 -0.0178695 -1.78049e-23)
(0.233487 -0.0183874 0)
(0.232802 -0.0192122 0)
(0.23219 -0.0197726 -2.52575e-23)
(0.231805 -0.0200429 3.02668e-24)
(0.231107 -0.0208467 -1.36529e-25)
(0.230479 -0.0213883 8.82395e-24)
(0.229884 -0.0223342 0)
(0.229137 -0.0235127 0)
(0.2288 -0.0241322 0)
(0.228351 -0.0249196 9.04069e-25)
(0.227578 -0.0255335 -9.34739e-25)
(0.226499 -0.0261877 1.97651e-25)
(0.225808 -0.0269101 -8.02593e-24)
(0.22533 -0.0280802 3.28901e-23)
(0.224685 -0.0287278 1.34335e-22)
(0.224108 -0.0294604 -3.36374e-23)
(0.213429 -0.0316394 -2.2132e-23)
(0.213875 -0.0315359 2.10914e-23)
(0.26104 0.0318433 4.88188e-22)
(0.333066 -0.0254926 8.63251e-22)
(0.336872 -0.0273856 -8.5321e-22)
(0.328851 -0.023311 -8.77515e-22)
(0.330432 -0.0259867 -2.71469e-21)
(0.217459 -0.0331883 1.52247e-25)
(0.262338 0.0347509 -4.81463e-22)
(0.27231 0.0337151 -9.41059e-22)
(0.26882 0.0355821 2.54883e-24)
(0.271048 0.0342984 -4.50631e-22)
(0.273529 0.0329562 -4.87544e-24)
(0.275317 0.0325818 -1.29948e-21)
(0.276529 0.0337863 4.30514e-22)
(0.276829 0.0362203 -8.48313e-22)
(0.277025 0.039359 0)
(0.278487 0.041002 4.22081e-22)
(0.28021 0.0404089 -4.19589e-22)
(0.283141 0.0376947 0)
(0.285971 0.0352099 -8.13787e-22)
(0.288232 0.0353712 -6.07842e-22)
(0.28962 0.0379314 6.023e-22)
(0.290711 0.0407989 0)
(0.292681 0.0412223 9.96357e-23)
(0.294922 0.0400125 -8.69228e-22)
(0.29701 0.0392374 -7.61973e-22)
(0.299218 0.0403727 -1.49483e-21)
(0.301263 0.0422312 -7.47563e-22)
(0.303184 0.0424791 0)
(0.305118 0.0423444 0)
(0.306678 0.0428725 3.69572e-22)
(0.308799 0.0444002 -3.68009e-22)
(0.311431 0.0446943 -2.60747e-21)
(0.31321 0.0434471 -3.83671e-21)
(0.332381 0.0277098 -1.71131e-22)
(0.335116 0.0260682 -5.20477e-22)
(0.22133 -0.0318325 0)
(0.219145 -0.0317851 3.82147e-23)
(0.337957 0.024232 0)
(0.340327 0.0218558 8.81066e-23)
(0.34285 0.0191892 4.56808e-23)
(0.345725 0.0174627 -1.4718e-21)
(0.347647 0.0154324 -1.85947e-22)
(0.348371 0.0134099 1.80777e-22)
(0.210995 -0.030929 -5.62686e-24)
(0.209487 -0.030206 -4.58983e-23)
(0.295157 -0.0660661 -2.1552e-22)
(0.329482 0.0302314 3.43198e-22)
(0.207505 -0.030601 0)
(0.317775 0.0419461 1.03789e-22)
(0.320971 0.0402377 -1.82094e-22)
(0.323757 0.0375693 2.6004e-22)
(0.323931 0.0348544 5.94756e-22)
(0.327627 0.0317751 -1.69897e-22)
(0.291966 -0.0664385 -4.34058e-22)
(0.289779 -0.0692919 0)
(0.288013 -0.0674432 2.45691e-22)
(0.285867 -0.0663 -5.43736e-22)
(0.284487 -0.0672551 -2.75604e-23)
(0.282664 -0.0646442 5.58772e-23)
(0.280383 -0.0647009 0)
(0.279 -0.064574 -2.27538e-22)
(0.277179 -0.0621184 -4.5373e-22)
(0.275371 -0.062847 -8.89458e-25)
(0.27423 -0.0623746 0)
(0.272269 -0.059904 -2.31607e-22)
(0.270253 -0.0607579 -4.6523e-22)
(0.268939 -0.0603891 0)
(0.267168 -0.058458 -2.375e-22)
(0.265386 -0.0588031 2.3648e-22)
(0.264144 -0.0589469 -1.19831e-22)
(0.262261 -0.0574905 1.19774e-22)
(0.260754 -0.0567044 2.41113e-22)
(0.259249 -0.0575434 -1.22926e-22)
(0.257771 -0.057418 1.22423e-22)
(0.256318 -0.0560386 9.89935e-22)
(0.254859 -0.0550781 0)
(0.204423 -0.0290719 -1.19137e-23)
(0.202976 -0.0290372 -6.04523e-24)
(0.199576 -0.0285764 1.90448e-23)
(0.36582 -0.0125507 -1.64866e-23)
(0.363339 -0.0143007 -6.89246e-23)
(0.365342 -0.00146555 0)
(0.197112 -0.0270435 -1.64012e-24)
(0.329708 -0.0259842 0)
(0.351128 0.00776535 -3.67046e-22)
(0.368204 -0.00295407 0)
(0.194289 -0.0267746 0)
(0.314217 -0.044487 0)
(0.354118 0.00508404 -1.71907e-22)
(0.191526 -0.0254882 -2.07796e-23)
(0.309194 -0.048091 -4.57193e-22)
(0.326842 -0.0275132 -1.83966e-21)
(0.316192 -0.0385251 2.1868e-22)
(0.357395 0.00419795 6.89209e-22)
(0.188951 -0.0240714 1.42307e-23)
(0.304293 -0.0514231 0)
(0.316714 -0.0325388 -4.58339e-22)
(0.31431 -0.0415333 -8.69755e-22)
(0.360337 0.00126109 -5.49982e-22)
(0.301461 -0.0661324 4.3154e-22)
(0.185386 -0.0228274 0)
(0.300375 -0.062495 0)
(0.299046 -0.0590991 -1.73671e-21)
(0.30012 -0.0562003 -4.35516e-22)
(0.301901 -0.054697 -8.94573e-22)
(0.301175 -0.0534278 -4.44017e-22)
(0.31692 -0.036057 2.20929e-22)
(0.319438 -0.033562 -1.33548e-21)
(0.320448 -0.0306503 -1.34282e-21)
(0.313191 -0.0447514 0)
(0.31414 -0.0411218 -1.33024e-21)
(0.363124 0.0018672 0)
(0.294989 -0.0629797 4.31932e-22)
(0.221953 -0.0313491 3.58228e-23)
(0.182309 -0.0211258 -3.68509e-24)
(0.164337 0.00626991 0)
(0.315728 0.0407657 -5.7733e-22)
(0.214788 -0.0108799 2.45264e-21)
(0.21622 -0.0105664 0)
(0.216921 -0.00380372 0)
(0.215469 -0.0172029 1.46855e-22)
(0.216657 -0.0133245 -3.16089e-22)
(0.214454 -0.0162212 1.92405e-23)
(0.163313 0.006422 4.16435e-23)
(0.162249 -0.00944428 -3.15673e-23)
(0.2176 -0.00167319 0)
(0.33359 -0.019443 9.01251e-24)
(0.220785 -0.0192729 1.43522e-22)
(0.167859 0.00729679 6.84172e-23)
(0.17007 -0.0120967 -3.16827e-23)
(0.22329 0.000111279 2.72079e-22)
(0.344614 -0.0215829 3.75166e-22)
(0.34462 -0.0190055 0)
(0.340318 -0.0214671 -6.46261e-24)
(0.221471 -0.02197 8.92958e-23)
(0.171676 0.0126305 4.84964e-23)
(0.172776 -0.0150577 6.27987e-23)
(0.225594 0.00263008 -1.62137e-21)
(0.22268 -0.0248037 2.39084e-24)
(0.174663 0.0129536 -6.27341e-23)
(0.179163 -0.0197751 1.21013e-22)
(0.175759 -0.0174286 -6.19984e-23)
(0.228851 0.00495588 -5.40517e-22)
(0.22575 -0.027235 2.49135e-24)
(0.177823 0.0156919 -7.89002e-24)
(0.231135 0.00691642 1.31891e-22)
(0.355243 -0.0177667 -6.7987e-22)
(0.349648 -0.0189408 0)
(0.227909 -0.0292041 -3.56692e-23)
(0.180772 0.0176687 0)
(0.234364 0.00925831 0)
(0.230602 -0.031299 1.73104e-23)
(0.183837 0.0194445 -2.89484e-23)
(0.237049 0.0108917 1.04186e-21)
(0.232191 -0.0327563 2.55323e-22)
(0.186932 0.0203554 1.33034e-23)
(0.239437 0.0132079 -2.0779e-21)
(0.235184 -0.0358612 -1.35357e-22)
(0.189998 0.0224468 -9.51889e-23)
(0.241887 0.0152019 1.02152e-21)
(0.237058 -0.036744 1.32358e-22)
(0.1929 0.0233249 5.2095e-23)
(0.244462 0.0170972 5.09525e-22)
(0.23898 -0.0391997 2.58329e-22)
(0.195653 0.0244036 -5.12295e-23)
(0.247096 0.0189335 4.91574e-22)
(0.240619 -0.0423025 3.85344e-22)
(0.198198 0.0249841 0)
(0.249358 0.0208247 -1.49042e-21)
(0.242329 -0.0430283 0)
(0.201305 0.0266007 3.21945e-24)
(0.251847 0.0226871 0)
(0.244553 -0.0456253 -1.27194e-22)
(0.203748 0.0262452 -6.97459e-23)
(0.253179 0.0238784 -1.49848e-21)
(0.24613 -0.047606 9.40391e-23)
(0.206326 0.0267421 4.28533e-23)
(0.256848 0.0257065 8.51021e-25)
(0.164327 -0.0135072 3.99574e-24)
(0.247974 -0.0494607 -2.5347e-22)
(0.208474 0.0271055 0)
(0.21066 0.027138 -1.03596e-23)
(0.212797 0.0276217 2.41572e-24)
(0.258501 0.0280558 0)
(0.253761 -0.0545412 1.13926e-21)
(0.252137 -0.0523322 7.57374e-22)
(0.249805 -0.0503107 5.05875e-22)
(0.259257 0.0293101 9.94122e-22)
(0.215368 0.0274968 1.50261e-25)
(0.216447 0.0266332 3.42703e-25)
(0.217257 0.0254118 9.62065e-24)
(0.218394 0.0245878 1.73513e-23)
(0.21949 0.0237409 8.63065e-24)
(0.220256 0.0230303 4.27314e-24)
(0.221135 0.0220766 8.27488e-24)
(0.22231 0.0213726 -1.23116e-23)
(0.223155 0.0208162 4.15822e-24)
(0.223989 0.0199384 -8.08204e-24)
(0.224759 0.0193007 -1.79793e-25)
(0.225227 0.0184628 -7.74504e-24)
(0.225896 0.0176512 1.47548e-23)
(0.226863 0.0172017 7.3761e-24)
(0.227699 0.016644 -1.42724e-23)
(0.22838 0.015932 -6.94498e-24)
(0.228936 0.0156977 -2.00047e-23)
(0.229521 0.0153061 3.22228e-23)
(0.23013 0.0142457 -1.26817e-23)
(0.2307 0.0136039 6.09753e-24)
(0.231373 0.0131853 -1.50606e-24)
(0.232024 0.0127173 5.76122e-24)
(0.232703 0.0119267 0)
(0.233398 0.0115797 0)
(0.23381 0.0116518 0)
(0.234218 0.0117375 -5.34623e-24)
(0.234632 0.0113338 -5.40556e-24)
(0.235242 0.0106658 4.48534e-23)
(0.235698 0.0103144 1.79298e-23)
(0.236233 0.0100781 -2.03666e-23)
(0.236823 0.00955337 1.00812e-23)
(0.237145 0.0094758 2.02899e-23)
(0.237558 0.00937484 4.85937e-24)
(0.237889 0.00881134 -9.44823e-24)
(0.238206 0.00819162 4.62225e-24)
(0.238723 0.00809105 4.59838e-24)
(0.239051 0.00782196 9.02371e-24)
(0.239411 0.00751501 -2.17111e-24)
(0.239611 0.00722851 3.25174e-24)
(0.239786 0.00726376 -1.06636e-24)
(0.240193 0.00710227 -8.22499e-24)
(0.24038 0.0067227 -1.82133e-24)
(0.240723 0.00635576 3.72183e-24)
(0.241059 0.00597646 -3.98953e-24)
(0.241281 0.00585542 0)
(0.241421 0.00564361 0)
(0.241651 0.00528635 -1.67572e-23)
(0.242023 0.00519087 7.59578e-24)
(0.242194 0.00514447 1.07106e-23)
(0.242744 0.00520019 -1.90871e-25)
(0.243356 0.00516704 -1.03053e-23)
(0.243612 0.00506511 -6.60406e-24)
(0.243849 0.00442812 -6.35326e-24)
(0.243879 0.00450963 2.55875e-23)
(0.243816 0.00439709 -1.2747e-23)
(0.243938 0.00401357 0)
(0.243945 0.00395306 0)
(0.24399 0.00402635 2.93007e-24)
(0.244311 0.00365278 5.70494e-24)
(0.244128 0.00346123 0)
(0.244477 0.00340526 -7.39321e-25)
(0.244183 0.00313491 -1.50442e-24)
(0.244124 0.0029041 6.2727e-24)
(0.243919 0.00291955 -9.47485e-24)
(0.243827 0.00264833 -1.3023e-23)
(0.243657 0.00247431 1.31489e-23)
(0.243419 0.00200536 0)
(0.243419 0.00208734 -1.36319e-23)
(0.243264 0.00186775 6.6686e-24)
(0.243641 0.00143769 2.03049e-23)
(0.243415 0.00129874 3.53698e-26)