/*--------------------------------*- C++ -*----------------------------------*\
| =========                 |                                                 |
| \\      /  F ield         | OpenFOAM: The Open Source CFD Toolbox           |
|  \\    /   O peration     | Version:  v1612+                                |
|   \\  /    A nd           | Web:      www.OpenFOAM.com                      |
|    \\/     M anipulation  |                                                 |
\*---------------------------------------------------------------------------*/
FoamFile
{
    version     2.0;
    format      ascii;
    class       volScalarField;
    location    "0.5";
    object      p;
}
// * * * * * * * * * * * * * * * * * * * * * * * * * * * * * * * * * * * * * //

dimensions      [0 2 -2 0 0 0 0];

internalField   nonuniform List<scalar> 
113025
(
0.000960787
-0.00134082
0.00551042
-0.0950137
0.00637535
0.0072177
0.0080088
0.00876464
0.00949436
0.00910092
0.00952702
0.00993307
0.00900269
0.00949764
0.00059319
0.00563759
-0.0589715
-0.0970889
-0.114452
0.00587036
0.00605063
0.00548799
0.00426558
0.00491028
0.00559853
0.0662793
0.0661847
0.0658612
0.0651197
0.0652282
0.0652381
-0.112435
-0.111985
0.0646536
0.0638921
-0.110169
-0.109668
0.0634031
0.0626414
-0.107712
-0.107188
0.0621273
0.00382886
0.0613632
-0.105394
-0.104921
0.0608508
0.00334026
0.0600656
-0.103143
-0.102765
0.0595669
0.0587406
-0.100923
-0.0988193
-0.100681
0.0582792
0.0573759
-0.0985608
0.0569529
0.000597349
0.0010647
0.00163971
0.00222803
0.00282087
0.0559295
-0.0960311
0.05562
0.054407
-0.0936572
0.0542925
0.0528888
-0.0914369
0.0529541
0.0513494
-0.0891059
0.051564
0.0498182
-0.0866338
0.0501562
0.0482039
-0.0839257
0.0487681
0.046573
-0.0812532
0.0474089
0.0450029
-0.0784932
0.04604
0.0434207
-0.075704
0.0446483
0.0417647
-0.0728913
0.0432419
-0.114221
-0.113981
0.0398483
-0.0701435
-0.0674781
-0.0647535
0.041816
0.0337841
0.0357912
0.0378146
-0.075009
-0.0722201
0.0403616
-0.0619103
-0.057199
-0.0525808
-0.0481343
-0.0438775
-0.0399223
-0.0361722
-0.0328438
-0.029783
-0.026988
-0.0243848
-0.0219726
-0.0197489
-0.0176899
-0.0157949
-0.0140766
-0.012512
-0.0110922
-0.00979584
-0.00861712
-0.00754902
-0.00656849
-0.00568438
-0.0048889
-0.00416102
-0.00349558
-0.00288436
-0.0023279
-0.00183159
-0.00137657
-0.00096204
-0.000578617
-0.000231311
7.44244e-05
0.000348313
0.000592312
0.000811677
0.00101093
0.00118596
0.00134147
0.00147584
0.00159183
0.00169119
0.00178456
0.00187557
0.00196033
0.00203696
0.00210105
0.00214973
0.00218642
0.00221483
0.00223931
0.00226339
0.0022827
0.00229551
0.00230019
0.00229925
0.00229288
0.0022849
0.00227597
0.00226921
0.00239487
0.00251807
0.00264021
0.00275841
0.00287153
0.00297942
0.00308301
0.0031818
0.0032759
0.00336533
0.00345118
0.00353275
0.00361198
0.00368694
0.00375866
0.0038251
0.00388752
0.00394536
0.00399983
0.00404849
0.00409007
0.00412729
0.00415968
0.00418953
0.00421293
0.00423208
0.00424656
0.00425673
0.00426347
0.00426508
0.00426072
0.00425116
0.00423585
0.00421581
0.00419205
0.00416447
0.00413309
0.00409658
0.00405406
0.00400617
0.00395265
0.00389391
0.00383083
0.00376174
0.00368824
0.00360969
0.00352931
0.00344638
0.00336035
0.00327053
0.00330665
0.00334047
0.00337074
0.00339504
0.00341243
0.00342402
0.00342857
0.00342445
0.00341389
0.00339544
0.00336715
0.00332901
0.00328112
0.0032212
0.00315327
0.00307311
0.00298171
0.00287242
0.00274904
0.00260583
0.00243717
0.00224783
0.00203826
0.00180838
0.00154983
0.00125843
0.000924848
0.000530724
7.59908e-05
-0.000437587
-0.00100683
-0.00163137
-0.00232212
-0.00308987
-0.00393197
-0.00484757
-0.00583993
-0.00692038
-0.0080852
-0.00937842
-0.0107866
-0.0123163
-0.0139742
-0.0157706
-0.0177226
-0.019841
-0.0221271
-0.02461
-0.0273335
-0.030296
-0.0335384
-0.0370543
-0.0408047
-0.0448377
-0.0492872
-0.0539502
-0.0724766
0.0388435
0.00649908
0.00723046
0.00799605
0.00880197
-0.0694507
0.0372358
0.00455039
0.0355435
0.03386
0.0326885
0.0315064
0.0303307
0.029115
0.0278924
0.0266436
0.0254102
0.0241639
0.022925
0.0216536
0.0203727
0.0190722
0.0177948
0.0165288
0.0152541
0.013992
0.0127347
0.0114979
0.0103594
0.00943304
0.00868076
0.00797978
0.00698037
0.00490532
0.00418321
-0.0624339
-0.0660419
0.00381672
0.00344648
0.00307144
0.00271433
0.0023609
0.00261535
0.00225747
-0.0740653
0.00572026
-0.0758787
0.00576206
0.005248
-0.0778161
0.00534366
0.00521408
0.00501493
0.00557009
0.00581774
0.00581579
0.00692866
0.00805357
0.00920749
0.0103861
0.0116187
0.0128879
0.014165
0.0154759
0.0167965
0.0180953
0.0194216
0.0207364
0.0220843
0.0234622
0.024812
0.0261773
0.0275085
0.0288188
0.0300747
0.0313126
0.0325243
-0.0798747
-0.0820311
0.000188351
-0.0842705
-0.00109002
-0.00123817
-0.000415528
0.00010258
-9.76107e-05
-0.0863701
0.00934332
0.00932256
0.00188514
-0.000377619
-0.088493
0.00964312
0.00992549
0.00982236
0.00953641
0.0015043
-0.000953586
-0.0906059
0.0101799
0.0103146
0.00996183
0.00113001
0.00654202
-0.0927766
0.00740116
0.0082106
0.00898412
0.00973339
0.0104351
0.00996746
0.0103838
0.0107802
0.00987617
0.010384
0.000702836
0.00666774
-0.0573405
-0.0948499
-0.111628
0.00628695
0.00285064
-0.0525798
-0.000818745
0.0101503
-0.000453461
0.0105419
-0.000505379
0.00627851
0.0652483
0.0651765
0.0647699
0.0640713
0.0641863
0.0642256
-0.109298
-0.108731
0.0635568
0.0628338
-0.106582
-0.106142
0.062298
0.00446119
0.00513385
0.00580086
0.0615695
-0.103868
-0.10349
0.0610148
0.00400669
0.0602938
-0.101334
-0.101128
0.0597458
0.0590023
-0.0988582
-0.0966974
-0.0988109
0.0584657
0.0576821
-0.0963398
0.0571739
0.00117194
0.00177414
0.0023836
0.00300038
0.00345922
0.0562984
-0.0937195
0.0558452
0.0548006
-0.0909605
0.0545285
0.0532872
-0.0885377
0.0532107
0.0517984
-0.0861444
0.0518636
0.0502775
-0.0836603
0.0504628
0.0487356
-0.0810878
0.0490629
0.0471055
-0.0783869
0.0477016
0.0454782
-0.0757313
0.0463502
0.0439176
-0.0730399
0.044972
0.0423152
-0.0703537
0.0435837
-0.111231
0.0405172
-0.0677263
-0.0650828
-0.0625609
0.0421749
0.0345103
0.0365056
0.0385172
0.0407414
-0.0599787
-0.0552331
-0.0506409
-0.0462903
-0.0421862
-0.0383251
-0.0347953
-0.0315651
-0.0285913
-0.0259154
-0.0234304
-0.021113
-0.0189674
-0.0169898
-0.0151679
-0.0135012
-0.0119728
-0.0105859
-0.00930453
-0.00813012
-0.00706539
-0.00609892
-0.00522651
-0.00443691
-0.00371948
-0.00306433
-0.00246957
-0.00193134
-0.00144964
-0.00101196
-0.000615466
-0.000254845
7.24366e-05
0.000361605
0.000621403
0.000855092
0.00106494
0.00125864
0.00142921
0.0015772
0.00170417
0.00181358
0.00190791
0.00199402
0.0020756
0.00215444
0.00222567
0.00228434
0.00233002
0.00236425
0.00238934
0.00240832
0.00242397
0.00243632
0.00244112
0.00244081
0.00243576
0.00242718
0.00241583
0.00240472
0.002531
0.00265612
0.00277951
0.00289896
0.00301274
0.00312169
0.00322573
0.0033233
0.00341508
0.00350365
0.00358817
0.00366933
0.00374615
0.00381981
0.00388753
0.0039514
0.00401149
0.00406767
0.00411701
0.00415918
0.0041965
0.00422966
0.00425941
0.00428322
0.00430184
0.00431516
0.00432409
0.00432917
0.00432997
0.00432527
0.00431553
0.00429998
0.00427939
0.00425388
0.00422455
0.00419173
0.00415328
0.00410967
0.00406009
0.00400467
0.00394337
0.00387852
0.00380836
0.0037331
0.00365301
0.00357084
0.00348603
0.00339835
0.00343571
0.00346861
0.00349753
0.00352031
0.00353759
0.00354732
0.00354857
0.00354289
0.00352832
0.00350454
0.00347114
0.00342773
0.00337406
0.00330969
0.00323042
0.00313758
0.00302866
0.00290445
0.00276054
0.0025928
0.00240089
0.00218593
0.00194814
0.00168419
0.00139276
0.00106173
0.000681663
0.00023931
-0.00025865
-0.000818447
-0.00142933
-0.00209778
-0.00283421
-0.0036473
-0.00454342
-0.00551456
-0.00657709
-0.00772436
-0.00896716
-0.0103369
-0.0118181
-0.0134173
-0.0151616
-0.0170592
-0.0191365
-0.0213991
-0.0238192
-0.0264394
-0.0293128
-0.0325136
-0.0360013
-0.0397504
-0.0437186
-0.0480607
-0.0699929
-0.0676757
0.0392551
0.00677063
0.00750424
0.00827201
0.00907255
-0.0672454
0.0376905
0.0360387
0.0343523
0.0331677
0.0319893
0.0308066
0.0296117
0.0283794
0.0271484
0.02592
0.0246926
0.0234568
0.0222082
0.0209427
0.019681
0.0184193
0.0171747
0.0159131
0.0146511
0.0133741
0.0121203
0.0109732
0.0100328
0.00936586
0.00885322
0.00813794
0.00717642
0.00536955
0.00497553
-0.0606998
-0.0640414
0.00457808
0.00417752
0.0037735
0.00338137
0.00299794
0.00325249
-0.0695936
-0.0713635
0.00675674
0.00575379
-0.0731954
0.00614485
0.00604061
0.00585412
0.00646006
0.00612426
0.00683156
0.00691165
0.00802309
0.00913597
0.0102864
0.0114574
0.0126783
0.0138843
0.0151625
0.0164216
0.0177143
0.0190165
0.0202877
0.0215973
0.022917
0.0242645
0.0256157
0.0269643
0.0282693
0.0295818
0.0308212
0.0320336
0.033241
-0.0752751
-0.0775215
-0.079826
0.00016742
0.000671391
0.000348501
-0.0820124
0.00961735
0.00246529
0.000116363
-0.0840838
0.0102158
0.00206202
-0.0862607
0.0108418
0.0106659
0.0104087
0.00168426
-0.0884315
0.0111106
0.0111577
0.0108409
0.00124425
0.00756161
-0.0905521
0.00840962
0.00920817
0.00997332
0.0107095
0.0114121
0.0108328
0.0112486
0.0116368
0.0107752
0.0112819
0.000827683
0.00770815
-0.0557425
-0.0926688
-0.108702
0.00705858
0.0642506
0.064104
0.0637777
0.0630091
0.0631401
0.063229
-0.105853
-0.105131
0.0624747
0.00651256
0.0617669
-0.102779
-0.102392
0.0611815
0.00466175
0.00534044
0.0060101
0.0604963
-0.099869
-0.099722
0.0598946
0.0592216
-0.0971032
-0.0948461
-0.0972066
0.0586267
0.0579355
-0.0944187
0.0573545
0.00360412
0.00411874
0.0566072
-0.0916686
0.0560613
0.0551832
-0.0887863
0.0547403
0.053676
-0.0859888
0.0534406
0.0522075
-0.0834395
0.0521207
0.0507243
-0.0809203
0.0507555
0.0491888
-0.0784029
0.0493562
0.0476407
-0.0757628
0.047974
0.045995
-0.0731379
0.0466363
0.0443743
-0.0705181
0.0452792
0.0428169
-0.0678775
0.0438997
-0.108142
0.041144
-0.0653402
-0.0627951
-0.0602745
0.0425114
0.035207
0.0371738
0.0392027
0.0410886
-0.057782
-0.0531452
-0.0487139
-0.0444876
-0.0405009
-0.0368434
-0.0334625
-0.0303563
-0.0274773
-0.0248713
-0.0224858
-0.0202532
-0.0181806
-0.0162789
-0.0145252
-0.0128929
-0.0114086
-0.0100482
-0.00879558
-0.00764792
-0.00659623
-0.00564563
-0.00478053
-0.00400323
-0.00329513
-0.00265414
-0.00207278
-0.00155252
-0.0010901
-0.000677529
-0.00030466
3.49425e-05
0.000343605
0.00061992
0.000870344
0.00110105
0.00130875
0.0014946
0.00166201
0.0018033
0.0019258
0.00203142
0.00212142
0.00219798
0.00227071
0.00234155
0.00240635
0.00246086
0.00250337
0.00253596
0.00255922
0.0025738
0.00258174
0.00258611
0.00258549
0.00257973
0.00257089
0.00255964
0.00254538
0.00267294
0.00280028
0.00292454
0.00304375
0.00315715
0.00326431
0.00336573
0.00346227
0.00355384
0.00364137
0.00372489
0.00380299
0.00387873
0.00394859
0.00401506
0.00407622
0.00413331
0.00418327
0.00422697
0.00426645
0.00430085
0.00433121
0.00435568
0.00437426
0.00438653
0.00439349
0.0043961
0.0043946
0.00438861
0.00437799
0.00436196
0.00434061
0.00431392
0.00428281
0.00424749
0.00420715
0.00416166
0.00411015
0.00405289
0.00399137
0.00392461
0.00385313
0.00377662
0.0036954
0.00361207
0.00352522
0.00356225
0.00359568
0.00362411
0.00364602
0.00366054
0.0036659
0.00366387
0.00365467
0.00363705
0.00360747
0.00356894
0.0035197
0.00346228
0.00339167
0.00330549
0.00320102
0.00307705
0.00293341
0.00276695
0.00257644
0.00236399
0.00212964
0.00186223
0.00156291
0.00123654
0.000861503
0.000439516
-4.20916e-05
-0.00058142
-0.00116974
-0.00181692
-0.00252381
-0.00330535
-0.00416691
-0.00510584
-0.00613528
-0.00726265
-0.00848758
-0.0098263
-0.0112674
-0.0128379
-0.0145338
-0.0163837
-0.0184116
-0.020634
-0.0230397
-0.0255993
-0.0284337
-0.0315606
-0.0350049
-0.0387223
-0.0426036
-0.0469962
-0.0511785
0.0396451
0.007012
0.00774153
0.00852828
0.00931337
-0.065056
-0.0631934
0.0381266
0.036517
0.0348554
0.0336691
0.0324993
0.0313164
0.0301201
0.0288891
0.0276651
0.0264487
0.0252352
0.0240011
0.0227673
0.0215191
0.0202747
0.0190236
0.0177714
0.0165154
0.0152251
0.0139333
0.0126896
0.0115692
0.0106146
0.00990491
0.00942191
0.00893661
0.00806161
0.00579289
-0.0588712
-0.0622326
0.00536341
0.00493712
0.00450548
0.00407671
0.00366191
0.00391135
0.00347729
-0.0652391
-0.0670418
0.0062197
-0.068793
0.00688745
0.00672342
0.00738561
0.00702939
0.00665518
0.00780959
0.00792256
0.00905357
0.010162
0.0113288
0.0124843
0.0136735
0.0148822
0.0161009
0.0173479
0.0186288
0.0198741
0.0211608
0.0224133
0.0237188
0.0250493
0.0263907
0.0277069
0.0290351
0.0303021
0.031534
0.0327234
0.0339358
-0.070838
-0.0731293
-0.075494
0.000140112
0.00016703
0.000754996
0.00125728
0.00185272
0.002454
0.00306556
-0.077693
0.00990092
0.0104588
0.00305988
0.000590282
-0.0797665
0.0111193
0.00263018
-0.0818597
0.0114491
0.0110033
0.00223257
-0.084093
0.0117611
0.0115109
0.0112862
0.00180783
-0.0862958
0.0120715
0.012021
0.0117555
0.00133361
0.00860521
-0.0884712
0.00944491
0.0102309
0.010996
0.0117139
0.0124103
0.011713
0.0121208
0.0125128
0.0116686
0.0121905
0.0010503
0.00874429
0.00784557
-0.0544139
-0.0907765
-0.105378
-0.0501781
0.0120328
0.0632853
0.0629914
0.0627372
0.0619435
0.0620717
0.0621802
-0.102074
-0.101462
0.0613315
0.00672564
0.0606896
-0.0987876
-0.0985909
0.0600452
0.0594169
-0.0957659
-0.0932179
-0.0958187
0.0587725
0.0581599
-0.0928622
0.0575144
0.00424224
0.00480575
0.00549385
0.00619393
0.0568683
-0.0899461
0.0562347
0.0555182
-0.087009
0.0549444
0.0540515
-0.0839449
0.0536433
0.0525682
-0.0811412
0.0523546
0.0511232
-0.078449
0.0510196
0.0496449
-0.0758934
0.0496384
0.0481148
-0.073277
0.048253
0.0465435
-0.070715
0.0468949
0.044867
-0.0681267
0.0455615
0.043255
-0.0655312
0.0441938
-0.104963
-0.104338
0.0416855
-0.0629972
-0.060545
-0.0580688
0.0428192
0.0358571
0.0378405
0.0398711
0.0414276
-0.05563
-0.0511754
-0.0469054
-0.0428224
-0.0389667
-0.0354496
-0.0322173
-0.0292188
-0.0264701
-0.0238868
-0.0215679
-0.0194114
-0.0174093
-0.0155763
-0.0138717
-0.0122918
-0.0108493
-0.00952279
-0.00830384
-0.00718327
-0.00615957
-0.00522547
-0.00438016
-0.00361179
-0.00291722
-0.00229549
-0.00172699
-0.00122299
-0.000775111
-0.000376454
-1.78037e-05
0.000312831
0.000605481
0.000875218
0.00112045
0.00134405
0.00154696
0.0017283
0.0018868
0.00202401
0.00214195
0.00224459
0.00232831
0.0023977
0.00246127
0.00252263
0.00258162
0.00263256
0.00267242
0.00270292
0.0027235
0.00273334
0.0027343
0.00273147
0.00272646
0.00271745
0.00270507
0.00269028
0.0028201
0.00294784
0.00307166
0.00318925
0.0033005
0.00340471
0.00350455
0.00359942
0.00369065
0.00377683
0.00385694
0.0039342
0.0040057
0.00407405
0.00413629
0.00419421
0.00424608
0.00429297
0.00433511
0.00437181
0.00440282
0.00442811
0.00444749
0.0044593
0.00446414
0.00446408
0.00445981
0.00445182
0.00443945
0.00442123
0.00439835
0.00437001
0.00433662
0.00429944
0.00425726
0.00421084
0.00415861
0.00410105
0.00403775
0.00396969
0.00389679
0.00381932
0.00373688
0.00365161
0.00368862
0.00372174
0.00374811
0.00376635
0.00377639
0.00377841
0.00377362
0.00376082
0.00373763
0.00370299
0.00365803
0.00360368
0.00353776
0.00345731
0.00335837
0.00324318
0.00310904
0.00295047
0.00276528
0.0025565
0.00233089
0.00207444
0.00178185
0.00145706
0.00108767
0.00067343
0.00021323
-0.00029401
-0.000850972
-0.00147064
-0.00214478
-0.00289712
-0.00373276
-0.00464936
-0.00565168
-0.00676045
-0.00797232
-0.00929382
-0.0107118
-0.0122499
-0.0139194
-0.0157244
-0.0177135
-0.0198882
-0.0222788
-0.0248929
-0.0277065
-0.0307768
-0.0341559
-0.0378116
-0.0417883
-0.0459424
0.0399928
0.00722431
0.00797916
0.00875054
0.00955834
0.0385314
0.0369686
0.0353247
0.0341416
0.0329614
0.0317788
0.0305778
0.0293586
0.0281307
0.0269173
0.0257014
0.0244932
0.0232723
0.0220609
0.0208309
0.0196097
0.0183664
0.0171068
0.0158005
0.0145103
0.0132682
0.0121844
0.0112762
0.0104679
0.00983448
0.00948765
-0.0571844
-0.0602885
-0.0586979
0.00617373
0.00571262
0.00525512
0.00479402
0.004344
0.0045893
0.00412935
-0.0609929
-0.0628022
0.00663623
-0.0645909
0.00763932
0.00845427
0.00799317
0.00757622
0.00710039
0.00888864
0.0100034
0.0111503
0.0122984
0.0134494
0.014636
0.0157984
0.0170226
0.0182229
0.019491
0.0207327
0.0219788
0.0232296
0.0245207
0.025803
0.0271312
0.0284375
0.0297385
0.0310182
0.0322205
0.0333916
0.0346088
-0.0664918
-0.0687994
-0.0712214
0.000785142
0.000752939
0.00133892
0.00190129
0.00246415
0.00304834
0.00368811
-0.0734937
0.0101659
0.0107553
0.00368561
-0.0755251
0.00321892
-0.0775596
0.0112953
0.0027885
-0.0797512
0.0123845
0.0118383
0.00237796
-0.0820205
0.0127182
0.0123658
0.0121921
0.00186219
-0.0842948
0.0130882
0.0128812
0.0126674
0.00153577
0.0096256
-0.0866209
0.0104577
0.0112675
0.0120254
0.0127541
0.0134536
0.0126054
0.0130133
0.0134016
0.00125592
0.00135217
0.00980903
0.00863668
-0.0891511
-0.101533
0.0125971
0.0131169
0.00991598
0.0115899
0.0129802
0.0135367
0.0121484
0.00491453
0.00432839
0.00562711
0.00635133
0.0623578
0.0620626
0.0608654
0.0610044
0.0610943
-0.0980967
-0.0976081
0.0601611
0.0596069
-0.0947946
-0.0918545
-0.0946786
0.0588926
0.0583432
-0.0916281
0.0576388
0.00689613
0.0570908
-0.0885123
0.0563796
0.0557797
-0.0854639
0.0551069
0.0544042
-0.0822701
0.0538324
0.0529407
-0.0792011
0.0525432
0.0514996
-0.0763056
0.0512496
0.0500571
-0.0736853
0.0498974
0.0485658
-0.0709756
0.0485177
0.0470272
-0.0684268
0.0471553
0.0454289
-0.0659136
0.0458152
0.0437467
-0.0633738
0.0444846
-0.101248
-0.100061
0.0421292
-0.0608114
-0.0583506
-0.0559813
0.0431162
0.0364993
0.0385263
0.040485
0.0417369
-0.0535916
-0.0493255
-0.0452202
-0.0412851
-0.0375816
-0.0341708
-0.0310352
-0.0281427
-0.0254852
-0.0229974
-0.0207175
-0.0186325
-0.0166788
-0.0148987
-0.0132522
-0.0117227
-0.0103277
-0.0090404
-0.00786011
-0.00677265
-0.00576789
-0.00485427
-0.00402479
-0.00326865
-0.0025859
-0.0019698
-0.0014168
-0.000918695
-0.000478795
-8.20191e-05
0.000270833
0.000590657
0.000875348
0.00113597
0.00137195
0.0015873
0.00178193
0.00195384
0.00210427
0.00223728
0.00235275
0.00244816
0.00252765
0.00259169
0.00264823
0.00270253
0.00275353
0.00279989
0.00283775
0.00286535
0.00288201
0.00288619
0.00288195
0.00287388
0.00286362
0.00285238
0.00283819
0.00296823
0.00309472
0.00321578
0.00333155
0.00344095
0.00354442
0.00364295
0.00373678
0.00382521
0.00390691
0.00398582
0.00405833
0.00412918
0.00419206
0.00425112
0.00430452
0.00435377
0.00439892
0.00443803
0.00447042
0.00449625
0.00451595
0.00452839
0.00453322
0.0045319
0.0045248
0.00451343
0.00449795
0.00447689
0.00445194
0.00442155
0.00438639
0.00434807
0.00430507
0.00425808
0.00420485
0.00414662
0.00408231
0.00401374
0.00393892
0.00386029
0.0037768
0.00381325
0.00384287
0.00386433
0.00387891
0.00388577
0.00388551
0.00387765
0.00385959
0.0038296
0.00378934
0.00373625
0.00367252
0.00359541
0.00350084
0.00339024
0.00326218
0.0031126
0.00293866
0.00274224
0.00252716
0.00228588
0.00201176
0.00170001
0.00134421
0.000945062
0.000499548
1.51909e-05
-0.000518818
-0.00110376
-0.00174473
-0.00246045
-0.00326937
-0.00416925
-0.00516275
-0.00625966
-0.00747065
-0.00878139
-0.010193
-0.0117125
-0.0133705
-0.0151693
-0.0171203
-0.0192649
-0.0216232
-0.0242324
-0.0270865
-0.0301469
-0.033465
-0.03706
-0.0409086
-0.055837
-0.054487
0.0403297
0.00743898
0.00820244
0.00896191
0.00978706
0.0388886
0.0373838
0.0357969
0.0346209
0.0334426
0.0322402
0.0310341
0.029814
0.0285826
0.0273583
0.0261422
0.024934
0.0237423
0.0225369
0.0213296
0.020113
0.0188919
0.0176265
0.0163447
0.0150615
0.0138446
0.0127524
0.0118806
0.0111343
0.00651499
0.00602857
0.00554132
0.0050604
0.00529805
0.00480811
-0.0567304
-0.0586807
0.00700983
-0.060453
0.0090877
0.00854257
0.00801303
0.00750017
-0.0623273
-0.0645642
-0.0669925
0.00368105
0.00432213
-0.0692709
0.0103888
0.0109908
-0.0713234
0.00383537
-0.0733629
0.00335076
-0.0754244
0.00294777
-0.0776687
0.0133454
0.0126968
0.00242027
-0.0800355
-0.101238
0.0137339
0.013233
0.013111
0.00202243
-0.082485
0.0141349
0.0137766
0.00173089
0.00186709
0.0023793
0.00222067
0.00292269
0.0107099
0.0109188
0.0120683
0.0132325
0.014381
0.0155323
0.0166883
0.0178745
0.0190704
0.0203297
0.0215478
0.0228168
0.024035
0.0252929
0.0265373
0.0278115
0.0290911
0.0304067
0.0316799
0.0329014
0.0340751
0.0352302
-0.0849908
0.0136135
0.0115439
0.0123404
0.0130971
0.0138269
0.0145188
0.0135331
0.0139324
0.0143247
-0.087765
-0.0976542
0.0140738
0.012449
0.0139434
0.0598016
0.0599446
0.0600719
-0.0940479
-0.0907021
-0.0937239
0.0589128
0.058522
-0.090672
0.0577306
0.0070863
0.0572734
-0.0873828
0.0564985
0.0560244
-0.0841116
0.0552475
0.0546911
-0.0808926
0.0539801
0.0532905
-0.0776317
0.0527195
0.0518519
-0.0745636
0.0514361
0.0504316
-0.0717081
0.0501301
0.0489867
-0.0688837
0.0487721
0.0474825
-0.0662718
0.0474062
0.0459269
-0.0638366
0.0460641
0.0442954
-0.0613705
0.0447318
-0.0970477
-0.0959121
0.0425956
-0.0588445
-0.0563121
-0.0539574
0.0433952
0.0371767
0.039226
0.0409839
0.0420291
-0.0516716
-0.0475367
-0.043578
-0.0398376
-0.0362954
-0.0329657
-0.0299194
-0.0271248
-0.0245416
-0.0221589
-0.0199574
-0.0179039
-0.0160303
-0.0142739
-0.0126676
-0.0112027
-0.00984436
-0.00860041
-0.00745237
-0.00638844
-0.00541105
-0.00451038
-0.00369254
-0.00294673
-0.00226992
-0.0016569
-0.00110714
-0.000618403
-0.000179764
0.000211514
0.000559948
0.000868412
0.00114661
0.00139536
0.00162078
0.00182524
0.00200855
0.00217285
0.00231705
0.00244405
0.00255444
0.00264656
0.00272195
0.00278299
0.00283284
0.00287931
0.00292317
0.00296275
0.0029968
0.00302243
0.00303439
0.00303398
0.00302522
0.00301261
0.002999
0.00298492
0.00311325
0.00323758
0.00335794
0.00347281
0.00358122
0.00368324
0.00378056
0.00387097
0.00395715
0.00403685
0.00411134
0.00418232
0.00424655
0.00430658
0.00436102
0.00441166
0.00445896
0.00449975
0.00453328
0.00455988
0.00458051
0.00459362
0.00459862
0.00459696
0.00458809
0.00457382
0.00455536
0.00453112
0.00450294
0.00447052
0.00443375
0.00439334
0.00434917
0.00430146
0.00424766
0.00418821
0.00412368
0.00405334
0.00397794
0.00389822
0.00392998
0.00395471
0.00397263
0.00398531
0.00399097
0.00398888
0.00397514
0.00395079
0.00391339
0.00386323
0.0038005
0.00372694
0.00363659
0.00352808
0.00340235
0.00325576
0.00308849
0.00290028
0.00269355
0.00246727
0.0022132
0.00192248
0.00158934
0.00120962
0.000784991
0.000318124
-0.00019101
-0.000753472
-0.00136718
-0.00205378
-0.00283183
-0.00370932
-0.0046983
-0.00579506
-0.00700214
-0.0083261
-0.00974506
-0.0112761
-0.0129322
-0.0147411
-0.0166858
-0.0188175
-0.0211575
-0.0237365
-0.0265576
-0.0296149
-0.0328769
-0.0363734
-0.0401024
-0.0518856
0.0406409
0.00762944
0.00838258
0.00915641
0.00996329
0.0392341
0.0377701
0.0362229
0.0350489
0.0338604
0.0326737
0.0314594
0.030235
0.0290117
0.0277751
0.0265629
0.02536
0.0241786
0.0229828
0.0217923
0.0205968
0.0193851
0.0181416
0.0168834
0.0156185
0.0144006
0.0133068
0.0124262
0.0117399
0.0104768
0.0110887
0.00681818
0.00630583
0.005796
0.00602708
0.00550705
0.00500198
-0.0522939
-0.0545372
0.00733408
-0.0564122
0.00943679
0.00890524
0.00837158
0.00784928
-0.0582808
-0.0603875
-0.0627804
0.00437702
0.00498062
0.00567784
0.00643272
-0.065097
0.0105992
0.0112389
0.0118736
-0.0671876
0.00448157
-0.0691403
0.0039401
-0.0711998
0.00351523
-0.0733442
0.0129955
0.00300104
-0.0757134
0.0143539
0.0135578
0.00252704
0.00277007
-0.0782598
0.0147819
0.0141234
0.0035575
0.0117988
0.0129696
0.0141074
0.0152652
0.0164047
0.0175465
0.0187136
0.0199024
0.021115
0.0223455
0.0235919
0.0247919
0.0260309
0.02722
0.0284557
0.0296845
0.0309656
0.0322351
0.0335411
0.0347356
0.0358979
0.0100283
-0.0808696
0.0140662
0.0151855
0.0146952
-0.0835714
-0.0977639
0.0145717
0.0144758
0.0148729
0.0152639
0.0126465
0.0134321
0.0141976
0.0149014
0.0155985
-0.0865481
-0.0937536
0.0145288
0.01507
0.0138656
-0.0897054
0.0588853
0.0587145
0.0589035
0.059162
0.00510417
0.00581881
0.0127021
0.00654472
-0.090004
0.0577509
0.0574432
-0.0864486
0.0565764
0.0562126
-0.0830519
0.0553509
0.0549449
-0.0797112
0.0541025
0.0535986
-0.076368
0.0528515
0.0521936
-0.0731418
0.0516013
0.0507831
-0.0700583
0.0503125
0.0493647
-0.0670934
0.0489902
0.0479186
-0.0643525
0.0476485
0.0463841
-0.0618895
0.0463008
0.0448059
-0.0594624
0.0449694
-0.0929693
-0.0917773
0.0431387
-0.0569985
-0.0544841
-0.0520717
0.0436443
0.0378904
0.0398097
0.0414211
0.0423113
-0.049807
-0.0458313
-0.042039
-0.0384571
-0.0350617
-0.03186
-0.0288987
-0.0261735
-0.0236621
-0.0213719
-0.0192342
-0.0172697
-0.0154335
-0.0137181
-0.0121446
-0.0107069
-0.00938752
-0.00817559
-0.00705035
-0.00601682
-0.0050592
-0.00417288
-0.00336371
-0.00262443
-0.00195326
-0.00134629
-0.000805695
-0.000324054
0.000107325
0.000490658
0.00083231
0.00113581
0.00140376
0.00164699
0.00186215
0.00205705
0.00222913
0.00238467
0.00252403
0.00264669
0.00275149
0.0028401
0.00291156
0.00296843
0.00301355
0.00305289
0.00308858
0.00312124
0.00315092
0.00317221
0.00318052
0.00317644
0.00316457
0.00314837
0.00313084
0.00325801
0.00338126
0.00350029
0.00361436
0.00372061
0.00382129
0.00391493
0.00400405
0.00408575
0.00416249
0.00423519
0.00430043
0.00436195
0.00441654
0.0044682
0.00451614
0.00455838
0.00459267
0.00461948
0.00463984
0.00465364
0.00465968
0.00465845
0.00464913
0.00463336
0.00461237
0.00458585
0.00455462
0.00451914
0.00447979
0.00443669
0.00439044
0.00434063
0.00428555
0.00422493
0.00415946
0.00408802
0.00401154
0.00403874
0.00406024
0.00407708
0.0040884
0.00409202
0.00408573
0.00406665
0.00403322
0.00398621
0.00392589
0.00385494
0.00376742
0.00366403
0.00353813
0.00339449
0.00323276
0.0030465
0.00284294
0.0026196
0.00237533
0.00210169
0.0017883
0.00143186
0.00103132
0.000585008
9.48641e-05
-0.000443093
-0.00103858
-0.00170552
-0.00245821
-0.00330926
-0.00427544
-0.00536453
-0.00657965
-0.0079099
-0.0093569
-0.0109006
-0.0125733
-0.0143812
-0.0163522
-0.0184811
-0.0208078
-0.0233461
-0.0261185
-0.0291253
-0.0323231
-0.0357459
-0.0394414
0.0409437
0.00781953
0.00858255
0.00935437
0.0101624
0.0395451
0.0381147
0.0366155
0.0354611
0.0342793
0.0330784
0.0318718
0.0306529
0.0294103
0.0281879
0.0269596
0.0257599
0.024558
0.0233858
0.0222072
0.021036
0.0198377
0.01863
0.0173988
0.0161801
0.014958
0.0138681
0.0129317
0.0121499
0.0114678
0.0109075
0.0106874
0.00708772
0.00655479
0.00677767
0.00622995
0.0056959
-0.0502591
0.00762581
-0.0524098
0.00974207
0.00922478
0.00868795
0.00816026
-0.0543049
-0.0563317
-0.0585862
0.00719333
-0.0609079
0.0107993
0.0114792
0.0121165
-0.0630389
0.00515952
-0.0649985
0.00456593
-0.067023
0.00408665
-0.0691081
0.0132804
0.00358977
-0.0714604
0.0149616
0.00301332
0.00332148
-0.0739431
0.0154055
0.0144583
0.00427426
0.0107534
0.0102377
-0.0766389
0.0158475
0.0150436
-0.0794101
-0.0956256
0.0150353
0.0156401
0.013793
0.0149289
0.0160889
0.0172192
0.0183844
0.019519
0.0206837
0.0218621
0.023073
0.0243063
0.0255204
0.0267199
0.0279114
0.0290919
0.0302507
0.0314577
0.0326437
0.0339549
0.016247
-0.0823398
0.0155722
0.0145686
0.0152992
0.0160074
0.016673
0.0154571
0.0158486
0.0162357
0.0155348
0.0160783
-0.0897167
-0.0855069
0.0135721
-0.0915914
0.0587329
0.0577143
0.0576399
0.0578594
0.0582604
0.0586127
-0.0858441
0.05659
0.0563736
-0.0822318
0.0554285
0.0551515
-0.0787549
0.054207
0.0538787
-0.0753184
0.0529719
0.0525131
-0.0719683
0.0517243
0.0511236
-0.0686843
0.0504666
0.0497263
-0.0655835
0.049168
0.0483009
-0.0626516
0.0478661
0.046819
-0.0601125
0.0465295
0.0452499
-0.057649
0.0451948
-0.0888412
-0.0877585
-0.0870299
0.0436321
-0.0552771
-0.0528497
-0.0503706
0.0438743
0.0385731
0.0402241
0.0419244
0.0425487
-0.0480683
-0.0442387
-0.0405985
-0.0371541
-0.033908
-0.0308362
-0.0279694
-0.0253214
-0.0228692
-0.0206198
-0.018524
-0.0166854
-0.0148724
-0.0132011
-0.0116597
-0.0102383
-0.00894176
-0.00774645
-0.00665109
-0.00564601
-0.00471153
-0.003844
-0.00304366
-0.00231725
-0.00165578
-0.00105906
-0.000529167
-5.31753e-05
0.000371627
0.000752869
0.00108579
0.00138417
0.00164716
0.00188298
0.00209266
0.00227754
0.00244496
0.00259325
0.00272701
0.00284427
0.00294464
0.00302751
0.00309382
0.00314558
0.0031865
0.00322014
0.00324932
0.00327551
0.00330076
0.00331631
0.00331963
0.0033127
0.00329885
0.00327925
0.00340593
0.00352712
0.00364253
0.00375178
0.00385563
0.00395344
0.00404574
0.00413187
0.00421175
0.0042851
0.00435158
0.00441491
0.00446948
0.00452219
0.00456874
0.0046137
0.00464695
0.00467333
0.00469353
0.00470757
0.0047143
0.00471427
0.00470613
0.00469109
0.00466933
0.0046411
0.00460735
0.00456881
0.00452598
0.0044795
0.0044306
0.0043777
0.00431943
0.004257
0.00418938
0.00411691
0.00414125
0.00416192
0.00417803
0.00418763
0.00418794
0.00417451
0.00414773
0.00410571
0.00404997
0.0039819
0.0038988
0.00379855
0.00367809
0.00353924
0.00338076
0.00320056
0.00299973
0.00277778
0.00253405
0.00226494
0.00196215
0.00161951
0.00122997
0.000797469
0.000322311
-0.000200662
-0.000774351
-0.00142311
-0.00216055
-0.00298949
-0.00392442
-0.00498939
-0.00619443
-0.00753147
-0.00898624
-0.0105433
-0.0122314
-0.0140521
-0.0160096
-0.0181362
-0.0204432
-0.0229591
-0.0256587
-0.0285922
-0.031704
-0.0350474
-0.0386759
-0.0425152
-0.0464194
0.0412157
0.0398435
0.0384415
0.0369925
0.0358384
0.0346684
0.0334673
0.0322599
0.0310343
0.0298018
0.0285693
0.0273488
0.0261307
0.0249406
0.0237583
0.0225957
0.021412
0.0202471
0.0190574
0.0178684
0.0166465
0.0154748
0.0143478
0.0133533
0.0124745
0.0117648
0.007326
0.00753967
0.0069716
0.00641292
0.00788376
-0.0484884
0.0100489
0.00952166
0.00898341
0.00843945
-0.0504619
-0.0524146
-0.0545158
0.00730565
0.0079597
0.00873067
0.00950936
0.0103127
-0.0567191
0.0109903
0.0116577
0.0123278
0.0129628
-0.0588943
0.00585903
-0.0609381
0.00523199
-0.0628966
0.00466152
-0.064994
0.0141621
0.00422239
-0.0671729
0.00358604
0.00392568
0.00418412
-0.069722
0.0159897
0.0147503
0.00513731
0.00594606
0.00667644
0.0109985
0.0105178
-0.0723752
0.016463
0.0153617
-0.0752574
0.0159839
0.0168911
-0.0781768
0.0160394
0.015689
0.0168445
0.017979
0.0191418
0.0202779
0.0214372
0.0225833
0.0237827
0.024986
0.0262246
0.0274103
0.028593
0.0297457
0.0309026
0.0319794
0.0330634
0.034147
0.0173228
0.0166009
0.0165866
-0.0812923
0.0164113
0.0170959
0.0177672
0.0164604
0.0168533
0.0172377
0.0165623
0.017101
-0.0846394
-0.086075
0.0117306
0.0121579
0.0118548
-0.0486404
-0.0853623
-0.0838109
-0.081882
-0.081761
0.0575696
0.0565726
0.0565529
0.0567768
0.0571853
0.057385
0.0554707
0.0553259