/*--------------------------------*- C++ -*----------------------------------*\
| =========                 |                                                 |
| \\      /  F ield         | OpenFOAM: The Open Source CFD Toolbox           |
|  \\    /   O peration     | Version:  v1612+                                |
|   \\  /    A nd           | Web:      www.OpenFOAM.com                      |
|    \\/     M anipulation  |                                                 |
\*---------------------------------------------------------------------------*/
FoamFile
{
    version     2.0;
    format      ascii;
    class       surfaceScalarField;
    location    "0.5";
    object      phi;
}
// * * * * * * * * * * * * * * * * * * * * * * * * * * * * * * * * * * * * * //

dimensions      [0 3 -1 0 0 0 0];

internalField   nonuniform List<scalar> 
225094
(
6.05481e-06
-9.1763e-07
-6.07925e-06
9.42067e-07
-1.18756e-06
6.7204e-06
-6.22331e-06
6.9047e-07
-1.05459e-06
5.53495e-06
1.1193e-06
-5.59966e-06
-2.87496e-06
1.42432e-06
2.99362e-06
-1.54298e-06
-1.00809e-06
5.51297e-06
-5.55947e-06
-9.48008e-07
5.49667e-06
-5.55676e-06
-9.06607e-07
5.48064e-06
-5.52204e-06
-8.631e-07
5.44793e-06
-5.49144e-06
-8.36446e-07
5.3762e-06
-5.40286e-06
-5.87741e-07
5.30144e-06
6.37424e-07
-5.35112e-06
-5.88816e-07
5.25865e-06
-5.25758e-06
-6.56499e-07
5.277e-06
-5.20931e-06
-5.96208e-07
5.30661e-06
6.61081e-07
-5.37149e-06
-5.94534e-07
5.35282e-06
-5.3545e-06
6.18566e-06
-8.88564e-07
-6.23669e-06
9.39585e-07
-1.05759e-06
5.56825e-06
1.09362e-06
-5.60428e-06
-1.49478e-07
3.44715e-06
3.29813e-07
-3.62749e-06
-3.297e-06
1.12774e-06
3.4883e-06
-1.31904e-06
-4.7114e-06
-1.57298e-07
6.8698e-08
4.8e-06
-1.72517e-06
2.57692e-06
-5.32925e-06
4.4775e-06
-6.97887e-07
5.18499e-06
7.56502e-07
-5.24361e-06
6.10192e-06
-9.72165e-07
-6.35456e-06
1.2248e-06
5.29338e-06
-6.08335e-07
5.51207e-07
-5.23625e-06
5.25189e-06
-4.23531e-07
4.65022e-07
5.25844e-06
-6.21713e-07
6.15158e-07
-1.65236e-07
-3.79964e-06
2.5208e-07
3.71279e-06
-7.42747e-08
-3.78982e-06
3.69886e-06
-3.79125e-06
3.22441e-08
3.68473e-06
-4.25793e-07
-3.82412e-06
4.86758e-07
3.76316e-06
-3.60918e-07
-3.84476e-06
3.77989e-06
-2.6695e-07
-3.8927e-06
3.79873e-06
-1.64977e-07
-4.58402e-06
4.31965e-08
4.7058e-06
-4.53358e-06
1.73156e-07
-2.55124e-07
4.61555e-06
-1.82683e-08
-3.82522e-06
7.98498e-08
3.76364e-06
-4.51219e-07
-3.88849e-06
5.08541e-07
3.83116e-06
6.336e-08
-4.38368e-06
-2.01429e-07
4.52175e-06
2.19182e-07
-4.36599e-06
-3.6953e-07
4.51634e-06
-3.07761e-08
-3.973e-06
1.39202e-07
3.86457e-06
-5.18958e-07
-3.92001e-06
5.56065e-07
3.8829e-06
2.05699e-07
-4.33653e-06
-3.01486e-07
4.43232e-06
3.53344e-07
-4.24898e-06
-4.71365e-07
4.367e-06
-1.61284e-07
-4.01728e-06
2.33879e-07
3.94468e-06
5.35232e-06
-4.12564e-07
-5.34949e-06
4.0973e-07
-5.75993e-07
-3.92652e-06
6.0108e-07
3.90143e-06
3.6585e-07
-4.40924e-06
-4.53807e-07
4.49719e-06
5.17124e-07
-4.16668e-06
-6.37315e-07
4.28687e-06
-2.63137e-07
-4.06884e-06
3.44108e-07
3.98787e-06
5.45261e-06
-2.36975e-07
-5.53337e-06
3.1773e-07
-6.19976e-07
-3.97905e-06
6.46398e-07
3.95263e-06
5.36264e-07
-4.34177e-06
-6.84113e-07
4.48962e-06
7.04901e-07
-4.03684e-06
-7.92146e-07
4.12409e-06
-3.1966e-07
-4.13952e-06
3.9753e-07
4.06165e-06
-6.38452e-07
-4.02414e-06
6.72833e-07
3.98976e-06
7.68287e-07
-4.22781e-06
-9.34492e-07
4.39401e-06
-3.69016e-06
9.20709e-07
3.83633e-06
-1.06688e-06
-3.87399e-06
7.87863e-07
-9.53206e-07
4.03933e-06
-4.32207e-07
-4.23052e-06
5.02581e-07
4.16014e-06
-6.97853e-07
-4.07644e-06
7.64691e-07
4.0096e-06
1.03168e-06
-4.03189e-06
-1.22752e-06
4.22772e-06
-5.11433e-07
-4.26423e-06
5.67576e-07
4.20809e-06
6.01741e-06
2.51801e-07
-2.32179e-07
-6.03703e-06
5.93193e-06
1.93514e-07
-5.98114e-06
-1.44299e-07
5.82891e-06
1.86524e-07
-8.35065e-08
5.74173e-06
9.18929e-08
-4.70837e-09
-8.65688e-09
5.63429e-06
1.16098e-07
-7.27824e-07
-4.14768e-06
8.24388e-07
4.05112e-06
1.30642e-06
-3.91466e-06
-1.45368e-06
4.06191e-06
-5.75344e-07
-4.3546e-06
6.58217e-07
4.27172e-06
-8.29091e-07
-4.22669e-06
9.02923e-07
4.15286e-06
1.43531e-06
-3.80402e-06
-1.60857e-06
3.97728e-06
-6.63448e-07
-4.41691e-06
7.31414e-07
4.34894e-06
-9.8988e-07
-4.34072e-06
1.03415e-06
4.29645e-06
1.74255e-06
-3.59483e-06
-1.92487e-06
3.77716e-06
-7.36791e-07
-4.43467e-06
8.01362e-07
4.3701e-06
-1.06378e-06
-4.45958e-06
1.14092e-06
4.38244e-06
1.95219e-06
-3.32327e-06
-2.13566e-06
3.50674e-06
-7.54179e-07
-4.4588e-06
8.18782e-07
4.3942e-06
-1.09086e-06
-4.48321e-06
1.11249e-06
4.46158e-06
2.20027e-06
-3.08571e-06
-2.41059e-06
3.29603e-06
-8.34754e-07
-4.50272e-06
8.96175e-07
4.4413e-06
-1.07579e-06
-4.51701e-06
1.12727e-06
4.46553e-06
2.42838e-06
-2.79131e-06
-2.62973e-06
2.99267e-06
-8.50382e-07
-4.49757e-06
9.32003e-07
4.41595e-06
-1.09474e-06
-4.52024e-06
1.14882e-06
4.46616e-06
2.61855e-06
-2.52117e-06
-2.85573e-06
2.75834e-06
-8.51762e-07
-4.50136e-06
8.85583e-07
4.46754e-06
-1.14577e-06
-4.54748e-06
1.15585e-06
4.5374e-06
2.86601e-06
-2.25276e-06
-3.07462e-06
2.46137e-06
-8.6345e-07
-4.49348e-06
9.03916e-07
4.45301e-06
-1.13654e-06
-4.60551e-06
1.1838e-06
4.55825e-06
3.02475e-06
-1.98552e-06
-3.1716e-06
2.13237e-06
-9.19116e-07
-4.48652e-06
9.24961e-07
4.48068e-06
-1.16201e-06
-4.62708e-06
1.16816e-06
4.62093e-06
3.03956e-06
-1.68808e-06
-3.11951e-06
1.76803e-06
-9.39722e-07
-4.5099e-06
9.70436e-07
4.47918e-06
1.42611e-07
-4.73292e-06
4.75979e-06
-1.69483e-07
-4.78456e-06
1.76761e-07
4.75041e-06
-1.23399e-06
-4.67913e-06
1.28125e-06
4.63188e-06
3.07231e-06
-1.31935e-06
-3.08195e-06
1.329e-06
3.07218e-06
-9.40528e-07
-3.06731e-06
9.35662e-07
3.11469e-06
-6.11309e-07
-3.07249e-06
5.69111e-07
-9.63757e-07
-4.55445e-06
9.91555e-07
4.52665e-06
-4.82386e-06
-1.7046e-06
4.75519e-06
1.77328e-06
-4.78773e-06
-1.5892e-06
4.75535e-06
1.62158e-06
-4.80461e-06
-1.42052e-06
1.51631e-06
4.70882e-06
3.03634e-06
-1.58127e-06
-3.21745e-06
1.76237e-06
-1.56958e-06
2.89241e-06
1.71351e-06
-9.1995e-07
-4.61624e-06
1.01238e-06
4.52381e-06
-3.18597e-07
3.17391e-06
-3.12922e-06
2.73905e-07
-3.33555e-07
3.22048e-06
-3.20552e-06
-2.55958e-07
3.19712e-06
-3.27472e-06
-1.72642e-07
3.21404e-06
-3.29736e-06
-1.19592e-07
3.15674e-06
-3.20979e-06
3.07686e-09
3.01295e-06
-3.13562e-06
1.16383e-07
2.90113e-06
-3.01443e-06
2.23549e-07
2.79242e-06
-2.89958e-06
3.51212e-07
2.66518e-06
-2.79284e-06
4.86713e-07
2.55946e-06
-2.69496e-06
6.10926e-07
2.4951e-06
-2.61931e-06
7.22458e-07
2.45134e-06
-2.56287e-06
8.26242e-07
2.41003e-06
-2.51382e-06
9.24634e-07
2.35921e-06
-2.4576e-06
1.05978e-06
2.27692e-06
-2.41206e-06
1.1385e-06
2.23439e-06
-2.31312e-06
1.22124e-06
2.18418e-06
-2.26691e-06
1.32972e-06
2.08547e-06
-2.19396e-06
1.40635e-06
2.0205e-06
-2.09713e-06
1.48753e-06
1.9343e-06
-2.01548e-06
1.56591e-06
1.85394e-06
-1.93233e-06
1.64296e-06
1.77664e-06
-1.85369e-06
1.69061e-06
1.73549e-06
-1.78314e-06
1.76e-06
1.64097e-06
-1.71036e-06
1.83017e-06
1.58685e-06
-1.65703e-06
1.87206e-06
1.53794e-06
-1.57983e-06
1.91269e-06
1.48308e-06
-1.5237e-06
1.96891e-06
1.42401e-06
-1.48023e-06
2.00949e-06
1.35921e-06
-1.39979e-06
2.03206e-06
1.28934e-06
-1.31191e-06
2.07575e-06
1.2265e-06
-1.27019e-06
2.11487e-06
1.20914e-06
-1.24826e-06
2.1514e-06
1.13866e-06
-1.1752e-06
2.17705e-06
1.11216e-06
-1.13781e-06
2.19413e-06
1.11398e-06
-1.13106e-06
2.21142e-06
1.07301e-06
-1.0903e-06
2.25418e-06
1.03673e-06
-1.07949e-06
2.27493e-06
1.02783e-06
-1.04857e-06
2.27313e-06
9.82051e-07
-9.80256e-07
2.29351e-06
9.34922e-07
-9.55297e-07
2.30232e-06
8.77802e-07
-8.86618e-07
2.34614e-06
8.12426e-07
-8.56243e-07
2.36186e-06
7.48052e-07
-7.63769e-07
2.38748e-06
7.06762e-07
-7.32385e-07
2.44238e-06
6.69069e-07
-7.23973e-07
2.47176e-06
6.96747e-07
-7.26128e-07
2.49203e-06
6.97639e-07
-7.17903e-07
2.50835e-06
6.95325e-07
-7.11649e-07
2.5255e-06
6.57813e-07
-6.74957e-07
2.51194e-06
6.39133e-07
-6.25579e-07
2.54635e-06
5.67782e-07
-6.02196e-07
2.55127e-06
5.63585e-07
-5.68496e-07
2.57912e-06
5.6281e-07
-5.90669e-07
2.58049e-06
5.63022e-07
-5.64392e-07
2.61404e-06
5.06276e-07
-5.39817e-07
2.63159e-06
4.93942e-07
-5.11492e-07
2.6526e-06
4.53683e-07
-4.74702e-07
2.65656e-06
4.283e-07
-4.32255e-07
2.69861e-06
3.73871e-07
-4.15917e-07
2.69702e-06
3.96859e-07
-3.95275e-07
4.26471e-07
2.71176e-06
-4.41215e-07
4.35062e-07
-2.67384e-06
2.66524e-06
4.11202e-07
-2.64305e-06
2.66691e-06
4.10682e-07
-2.65881e-06
2.65933e-06
3.94066e-07
-2.63191e-06
2.64852e-06
4.01932e-07
-2.64129e-06
2.63342e-06
3.6236e-07
-2.59252e-06
2.6321e-06
3.64566e-07
-2.57626e-06
2.57405e-06
3.35827e-07
-2.53927e-06
2.56801e-06
3.22238e-07
-2.50455e-06
2.51813e-06
3.17666e-07
-2.51703e-06
2.5216e-06
2.88625e-07
-2.51578e-06
2.54482e-06
2.62116e-07
-2.49967e-06
2.52618e-06
2.55468e-07
-2.52043e-06
2.52708e-06
2.25379e-07
-2.52266e-06
2.55275e-06
2.17111e-07
-2.53789e-06
2.54616e-06
1.76659e-07
-2.53502e-06
2.57547e-06
1.28595e-07
-2.53023e-06
2.5783e-06
9.58416e-08
-2.53818e-06
2.57094e-06
6.13839e-08
-2.52921e-06
2.56367e-06
3.90751e-08
-2.54662e-06
2.56893e-06
9.26006e-09
-2.53533e-06
2.56515e-06
-9.09448e-09
-2.54176e-06
2.56011e-06
-2.42007e-08
-2.542e-06
2.55711e-06
-4.61652e-08
-2.53919e-06
2.56115e-06
-7.70784e-08
-2.54116e-06
2.57207e-06
-7.92242e-08
-2.54854e-06
2.55068e-06
-1.17063e-07
-2.52741e-06
2.56525e-06
-1.22216e-07
-2.51415e-06
2.5193e-06
-1.19963e-07
-2.50792e-06
2.50566e-06
-1.51786e-07
-2.47733e-06
2.50915e-06
-1.74733e-07
-2.48642e-06
2.50936e-06
-1.91449e-07
-2.48189e-06
2.4986e-06
-2.17049e-07
-2.49095e-06
2.51655e-06
-2.44178e-07
-2.50835e-06
2.53548e-06
-2.97907e-07
-2.51737e-06
2.5711e-06
-3.31305e-07
-2.56838e-06
2.60178e-06
-3.57432e-07
-2.56762e-06
2.59375e-06
-3.91719e-07
-2.6166e-06
2.65088e-06
-4.22962e-07
-2.62258e-06
2.65382e-06
-4.31071e-07
-2.65798e-06
2.66609e-06
-4.37311e-07
-2.65598e-06
2.66222e-06
-4.78178e-07
-2.64704e-06
2.68791e-06
-4.75397e-07
-2.68588e-06
2.6831e-06
-5.14651e-07
-2.69431e-06
2.73357e-06
-5.09375e-07
-2.76638e-06
2.7611e-06
-5.39736e-07
-2.7759e-06
2.80626e-06
-5.71351e-07
-2.76314e-06
2.79476e-06
-5.92609e-07
-2.77647e-06
2.79773e-06
-6.1434e-07
-2.74724e-06
2.76897e-06
-2.75179e-06
-6.49457e-07
2.78691e-06
-2.72884e-06
6.56052e-07
-6.78999e-07
-2.68861e-06
6.73917e-07
-7.14154e-07
-2.6936e-06
7.36292e-07
-7.31295e-07
-2.65551e-06
7.60937e-07
-7.99028e-07
-2.6368e-06
7.8125e-07
-7.99957e-07
-2.62308e-06
7.45522e-07
-7.5925e-07
-2.61306e-06
8.06559e-07
-8.16575e-07
-2.59257e-06
8.02119e-07
-8.22613e-07
-2.5972e-06
8.24122e-07
-8.19488e-07
-2.6104e-06
8.4903e-07
-8.35826e-07
-2.6006e-06
8.5863e-07
-8.68435e-07
-2.63306e-06
8.90153e-07
-8.57689e-07
-2.60812e-06
8.79643e-07
-9.0459e-07
-2.59142e-06
9.09085e-07
-9.2578e-07
-2.51226e-06
9.09975e-07
-9.8914e-07
-2.47676e-06
1.01619e-06
-1.05169e-06
-2.38994e-06
1.06049e-06
-1.14731e-06
-2.33987e-06
1.11417e-06
-1.16424e-06
-2.28774e-06
1.13813e-06
-1.19025e-06
-2.25093e-06
1.17856e-06
-1.21538e-06
-2.2094e-06
1.19806e-06
-1.23959e-06
-2.18224e-06
1.24127e-06
-1.26843e-06
-2.14426e-06
1.26537e-06
-1.30335e-06
-2.12592e-06
1.31587e-06
-1.33421e-06
-2.10217e-06
1.33787e-06
-1.36162e-06
-2.07234e-06
1.37401e-06
-1.40383e-06
-2.02921e-06
1.42212e-06
-1.46526e-06
-1.98295e-06
1.50187e-06
-1.54813e-06
-1.92199e-06
1.54495e-06
-1.60591e-06
-1.87648e-06
1.58556e-06
-1.63106e-06
-1.85946e-06
1.62782e-06
-1.64485e-06
-1.82544e-06
1.67256e-06
-1.70658e-06
-1.7626e-06
1.72402e-06
-1.78686e-06
-1.70541e-06
1.78645e-06
-1.84364e-06
-1.6498e-06
1.89702e-06
-1.95263e-06
-1.60339e-06
1.99028e-06
-2.03669e-06
-1.56601e-06
2.08009e-06
-2.11747e-06
-1.55127e-06
2.16855e-06
-2.1833e-06
-1.51073e-06
2.2321e-06
-2.27264e-06
-1.47095e-06
2.33598e-06
-2.37576e-06
-1.43928e-06
2.38187e-06
-2.41353e-06
-1.43591e-06
2.46343e-06
-2.46679e-06
-1.40756e-06
2.52711e-06
-2.55546e-06
-1.35073e-06
2.57051e-06
-2.62733e-06
-1.27463e-06
2.61463e-06
-2.69073e-06
-1.17252e-06
2.65339e-06
-2.7555e-06
-1.06775e-06
2.68979e-06
-2.79456e-06
-9.13727e-07
2.72056e-06
-2.87458e-06
-7.93481e-07
2.83795e-06
-2.9582e-06
-6.50479e-07
2.88123e-06
-3.02423e-06
-5.3103e-07
2.95117e-06
-3.07062e-06
-4.17067e-07
2.95755e-06
-3.07152e-06
-2.57535e-07
3.01337e-06
-3.1729e-06
-1.04631e-07
3.07305e-06
-3.22596e-06
3.44077e-08
3.20498e-06
-3.34401e-06
3.34984e-06
-3.46491e-06
3.18516e-06
-1.29603e-06
-3.39793e-06
1.50881e-06
-1.06912e-06
-4.60403e-06
1.09107e-06
4.58209e-06
5.20896e-06
-8.37728e-07
8.13871e-07
-5.18511e-06
5.08099e-06
-8.95669e-07
1.02364e-06
5.0887e-06
-1.10738e-06
1.09968e-06
-1.05885e-06
5.10621e-06
1.04133e-06
3.39405e-06
-1.07135e-06
-3.54176e-06
1.21906e-06
-1.12066e-06
-4.6912e-06
1.19096e-06
4.62089e-06
6.38187e-06
-6.6894e-07
6.53659e-07
-6.36659e-06
-1.19521e-06
-4.82269e-06
1.30827e-06
4.70963e-06
-4.84791e-06
-1.31638e-06
1.40137e-06
4.76292e-06
-4.89823e-06
-1.39402e-06
1.44434e-06
-4.98864e-06
-1.42993e-06
1.52034e-06
-5.03371e-06
-1.44051e-06
1.48558e-06
-5.15084e-06
-1.29217e-06
1.4093e-06
-5.12962e-06
-1.39225e-06
1.37103e-06
-5.22747e-06
-1.36215e-06
1.46e-06
-5.23492e-06
-1.39277e-06
1.40022e-06
-5.26994e-06
-1.3996e-06
1.43462e-06
-5.28495e-06
-1.40402e-06
1.41902e-06
-5.33831e-06
-1.3861e-06
1.43947e-06
-5.35021e-06
-1.44375e-06
1.45565e-06
-5.45377e-06
-1.40787e-06
1.51143e-06
-5.54235e-06
-1.42856e-06
1.51713e-06
-5.55863e-06
-1.41827e-06
1.43456e-06
-5.63e-06
-1.32803e-06
1.3994e-06
-5.68253e-06
-1.37956e-06
1.43209e-06
-5.61166e-06
-1.36921e-06
1.29834e-06
-5.6217e-06
-1.29406e-06
1.3041e-06
-5.6822e-06
-1.15243e-06
1.21293e-06
-5.69951e-06
-1.15577e-06
1.17308e-06
-5.64237e-06
-1.06363e-06
1.00649e-06
-6.30219e-06
-3.84631e-07
1.04445e-06
1.09095e-06
-7.41161e-06
1.84678e-08
-5.1761e-07
6.44038e-06
5.78961e-07
-6.50173e-06
6.30092e-06
-7.80922e-07
-6.27255e-06
7.52555e-07
-5.32518e-07
3.42329e-06
6.81062e-07
-3.57184e-06
-8.22853e-07
3.40906e-06
-3.54974e-06
9.63534e-07
6.19795e-06
-9.3476e-07
-6.15269e-06
8.89504e-07
6.08056e-06
-1.03897e-06
-6.05137e-06
1.00978e-06
5.99635e-06
-1.07937e-06
-5.98876e-06
1.07178e-06
6.00381e-06
-1.07603e-06
-6.00504e-06
1.07726e-06
-1.01448e-06
5.95475e-06
-5.96476e-06
1.02449e-06
-9.68833e-07
5.91724e-06
-5.96289e-06
6.07533e-06
-8.46055e-07
-6.05963e-06
8.30356e-07
-1.54317e-06
2.74222e-06
1.68403e-06
-2.88308e-06
-1.10488e-06
5.60535e-06
1.11038e-06
-5.61086e-06
-1.62056e-06
2.53646e-06
1.76642e-06
-2.68232e-06
-1.11795e-06
5.59912e-06
1.15513e-06
-5.63631e-06
-5.40119e-07
6.39885e-06
6.16942e-07
-6.47568e-06
-1.73977e-06
2.30182e-06
1.91798e-06
-2.48003e-06
6.40963e-06
-6.49781e-07
-6.56987e-06
8.10023e-07
6.47597e-06
-5.71191e-07
-6.59614e-06
6.91359e-07
-6.42565e-07
6.47505e-06
6.81439e-07
-6.51392e-06
6.44089e-06
-5.65438e-07
-6.51802e-06
-1.19021e-06
5.61092e-06
1.24411e-06
-5.66481e-06
5.73497e-06
-1.1751e-06
1.18378e-06
-5.74365e-06
5.67388e-06
-1.17675e-06
1.23785e-06
5.71593e-06
-1.19232e-06
1.15026e-06
5.67315e-06
-1.20963e-06
1.25241e-06
5.55215e-06
-1.17757e-06
1.29857e-06
5.48181e-06
-1.265e-06
1.33534e-06
5.42034e-06
-1.35065e-06
1.41212e-06
5.3592e-06
-1.39331e-06
1.45445e-06
5.34018e-06
-1.44139e-06
1.46042e-06
5.29958e-06
-1.3917e-06
1.4323e-06
5.21044e-06
-1.43952e-06
1.52866e-06
5.1586e-06
-1.55003e-06
1.60187e-06
5.07071e-06
-1.57668e-06
1.66457e-06
5.05997e-06
-1.6126e-06
1.62335e-06
4.96953e-06
-1.54726e-06
1.6377e-06
4.93534e-06
-1.58533e-06
1.61952e-06
4.87514e-06
-1.5743e-06
1.6345e-06
4.85564e-06
-1.57576e-06
1.59527e-06
4.8387e-06
-1.55186e-06
1.5688e-06
4.80076e-06
-1.64449e-06
1.68243e-06
4.77795e-06
-1.82014e-06
1.84295e-06
-1.84729e-06
1.80139e-06
-1.82793e-06
2.05741e-06
2.01825e-06
-2.24773e-06
-1.95196e-06
1.88822e-06
2.10468e-06
-2.04094e-06
6.37692e-06
-1.02461e-06
-6.37894e-06
1.02663e-06
-2.12459e-06
1.72605e-06
2.26349e-06
-1.86496e-06
3.22195e-07
5.47302e-06
-2.90094e-08
-5.7662e-06
5.15259e-06
-6.01796e-06
-1.974e-07
6.36615e-06
-2.21167e-07
-5.94758e-06
1.02874e-07
6.20035e-06
-6.04035e-06
-2.62875e-07
6.48224e-06
-1.38871e-06
-6.26717e-06
1.17364e-06
-2.33701e-06
1.59519e-06
2.43925e-06
-1.69742e-06
-7.08194e-07
5.31925e-06
6.87471e-07
-5.29853e-06
5.07943e-06
-9.16347e-07
8.98311e-07
-5.06139e-06
6.04952e-06
-7.96886e-07
-6.078e-06
8.25372e-07
-1.87071e-06
6.63082e-06
-5.9919e-06
1.23179e-06
-2.50063e-06
1.51909e-06
2.59352e-06
-1.61199e-06
5.28132e-06
-6.97792e-07
7.44818e-07
-5.32834e-06
-7.74841e-07
5.2723e-06
8.39999e-07
-5.33745e-06
-7.79963e-07
5.12531e-06
7.61274e-07
-5.10662e-06
-5.65582e-07
5.31899e-06
5.81473e-07
-5.33488e-06
6.04369e-06
-8.7701e-07
8.88135e-07
9.86032e-07
4.79201e-06
9.42365e-07
-2.76401e-06
1.35358e-06
-1.46452e-06
-8.28575e-07
5.41198e-06
-5.41985e-06
-6.65602e-07
5.17321e-06
-5.16411e-06
-5.81133e-07
5.32245e-06
-5.33585e-06
6.09076e-06
-8.22722e-07
-1.03576e-06
5.51312e-06
-3.12961e-06
1.25693e-06
-1.02644e-06
5.50365e-06
-9.99901e-07
5.47013e-06
-9.77083e-07
5.45782e-06
-9.36796e-07
5.40764e-06
-9.61263e-07
5.40067e-06
-5.61817e-07
5.29767e-06
-5.67879e-07
5.26471e-06
-5.69491e-07
5.27861e-06
-7.08114e-07
5.30654e-06
-6.16886e-07
5.26159e-06
6.29586e-06
-8.07505e-07
-1.07766e-06
5.54103e-06
-3.65781e-07
3.28041e-06
-3.514e-06
9.51587e-07
-4.71963e-06
-1.56749e-07
4.51598e-06
-1.39228e-07
5.98133e-06
-8.74831e-07
-1.45492e-07
3.12955e-06
4.38026e-06
1.75837e-06
-7.85993e-07
5.08546e-06
7.30155e-06
-7.85868e-07
5.29234e-06
7.03398e-06
-6.46423e-07
5.20698e-06
-1.28245e-07
-3.93834e-06
3.95228e-09
-3.92202e-06
-3.80557e-06
-3.98253e-07
-3.87709e-06
-3.49573e-07
-3.89344e-06
-2.89926e-07
-3.95235e-06
-1.86083e-07
-4.33458e-06
-4.38392e-06
6.95202e-08
1.31502e-07
-3.9875e-06
-4.59607e-07
-3.94784e-06
9.33338e-08
-4.27131e-06
2.05165e-07
-4.21781e-06
-1.06467e-07
-4.02781e-06
5.19912e-06
-4.55139e-07
5.27825e-06
-5.02656e-07
5.20545e-06
-5.48917e-07
-4.99333e-07
-3.99667e-06
2.89997e-07
-4.26068e-06
3.968e-07
-4.12866e-06
-2.12255e-07
-4.06816e-06
5.37623e-06
-3.36177e-07
-5.38199e-07
-4.0083e-06
3.86712e-07
-4.25969e-06
5.31976e-07
-3.99375e-06
-2.72385e-07
-4.11612e-06
-5.90055e-07
-4.02745e-06
5.97975e-07
-4.17146e-06
-3.75629e-06
8.03005e-07
-3.92405e-06
6.7507e-07
-3.48269e-07
-4.22346e-06
-6.49013e-07
-4.07298e-06
8.53129e-07
-4.04925e-06
-4.37065e-07
-4.30488e-06
5.96819e-06
2.4273e-07
5.90672e-06
2.47998e-07
5.81477e-06
1.8384e-07
5.70768e-06
9.84354e-08
-1.56638e-07
5.55395e-06
-7.06533e-07
-4.09773e-06
1.12391e-06
-3.84937e-06
-4.82531e-07
-4.35704e-06
-7.7523e-07
-4.20154e-06
1.28373e-06
-3.76308e-06
-6.01713e-07
-4.41633e-06
-8.80341e-07
-4.33623e-06
1.52141e-06
-3.58288e-06
-6.91044e-07
-4.46266e-06
-1.0052e-06
-4.3993e-06
1.72739e-06
-3.37004e-06
-7.18708e-07
-4.47015e-06
-1.06035e-06
-4.49009e-06
2.01748e-06
-3.14048e-06
-7.61043e-07
-4.53251e-06
-1.044e-06
-4.51499e-06
2.20872e-06
-2.86605e-06
-8.31654e-07
-4.52145e-06
-1.08026e-06
-4.53149e-06
2.41017e-06
-2.58293e-06
-8.7886e-07
-4.47047e-06
-1.08836e-06
-4.57766e-06
2.64509e-06
-2.30025e-06
-8.88759e-07
-4.47605e-06
-1.08551e-06
-4.59852e-06
2.84569e-06
-2.07369e-06
-8.9729e-07
-4.5153e-06
-1.15212e-06
-4.6154e-06
2.932e-06
-1.87796e-06
-8.83224e-07
-4.54302e-06
-4.63767e-06
7.79028e-08
-1.17586e-06
-4.68521e-06
2.99716e-06
-1.61293e-06
3.02065e-06
-1.26782e-06
3.05617e-06
-8.82004e-07
-8.45836e-07
-4.62782e-06
-4.81382e-06
-1.67851e-06
-4.79704e-06
-1.59678e-06
-4.76587e-06
-1.33378e-06
-8.59066e-07
-4.61533e-06
-5.75593e-07
3.13819e-06
-5.16283e-07
3.16117e-06
-4.32335e-07
3.11317e-06
-3.11826e-07
3.09353e-06
-1.7622e-07
3.02114e-06
-6.59202e-08
2.90265e-06
4.79309e-08
2.78727e-06
1.41421e-07
2.69893e-06
2.55318e-07
2.55128e-06
3.55661e-07
2.45911e-06
4.50623e-07
2.40014e-06
5.55739e-07
2.34623e-06
6.88278e-07
2.27749e-06
8.20402e-07
2.22709e-06
9.10306e-07
2.18701e-06
1.01348e-06
2.13122e-06
1.16372e-06
2.03394e-06
1.26116e-06
1.98803e-06
1.37663e-06
1.90503e-06
1.46891e-06
1.84202e-06
1.54013e-06
1.78272e-06
1.60024e-06
1.71653e-06
1.68946e-06
1.64627e-06
1.72964e-06
1.60078e-06
1.77744e-06
1.53906e-06
1.84383e-06
1.47155e-06
1.88071e-06
1.44619e-06
1.91654e-06
1.38818e-06
1.95056e-06
1.32519e-06
1.96226e-06
1.27764e-06
1.987e-06
1.20176e-06
2.00447e-06
1.19167e-06
2.02506e-06
1.11807e-06
2.02662e-06
1.1106e-06
2.08207e-06
1.05854e-06
2.12352e-06
1.03155e-06
2.15595e-06
1.0043e-06
2.21665e-06
9.67126e-07
2.24638e-06
9.52324e-07
2.28167e-06
8.99633e-07
2.30986e-06
8.49608e-07
2.31991e-06
8.02375e-07
2.33458e-06
7.33383e-07
2.35687e-06
6.84476e-07
2.3782e-06
6.47736e-07
2.41796e-06
6.56983e-07
2.43353e-06
6.82068e-07
2.46692e-06
6.61939e-07
2.48928e-06
6.35451e-07
2.52191e-06
6.06511e-07
2.51755e-06
5.72139e-07
2.53545e-06
5.45682e-07
2.56372e-06
5.34537e-07
2.60074e-06
5.26004e-07
2.60029e-06
5.06732e-07
2.63421e-06
4.60023e-07
2.64864e-06
4.3925e-07
2.67017e-06
4.06766e-07
2.6745e-06
3.6954e-07
3.97527e-07
4.09597e-07
-2.65512e-06
3.95841e-07
-2.64506e-06
3.98977e-07
-2.63504e-06
3.85104e-07
-2.62742e-06
3.96826e-07
-2.60424e-06
3.73102e-07
-2.55253e-06
3.58135e-07
-2.52431e-06
3.5624e-07
-2.50265e-06
3.2646e-07
-2.48725e-06
2.99109e-07
-2.48843e-06
2.97901e-07
-2.49846e-06
2.58405e-07
-2.48094e-06
2.4454e-07
-2.50879e-06
2.03007e-07
-2.49636e-06
1.71866e-07
-2.50388e-06
1.30924e-07
-2.48929e-06
1.12356e-07
-2.51962e-06
8.25873e-08
-2.49944e-06
5.94249e-08
-2.52345e-06
3.32634e-08
-2.50917e-06
1.01105e-08
-2.5186e-06
-2.79066e-08
-2.50398e-06
-5.11654e-08
-2.51593e-06
-7.18255e-08
-2.5205e-06
-9.25401e-08
-2.52782e-06
-1.14869e-07
-2.50508e-06
-1.31373e-07
-2.49765e-06
-1.28587e-07
-2.5107e-06
-1.30178e-07
-2.47574e-06
-1.48705e-07
-2.46789e-06
-1.79237e-07
-2.45135e-06
-2.23985e-07
-2.4462e-06
-2.54128e-07
-2.47821e-06
-2.68965e-07
-2.50254e-06
-3.39925e-07
-2.49742e-06
-3.60575e-07
-2.54697e-06
-3.90008e-07
-2.58717e-06
-4.25963e-07
-2.58662e-06
-4.67377e-07
-2.61657e-06
-4.74014e-07
-2.64934e-06
-4.99419e-07
-2.62163e-06
-5.22494e-07
-2.66281e-06
-5.06955e-07
-2.70985e-06
-5.31542e-07
-2.74179e-06
-5.61883e-07
-2.74556e-06
-5.92212e-07
-2.73281e-06
-6.24988e-07
-2.74369e-06
-2.71617e-06
-2.71095e-06
6.68691e-07
-2.67661e-06
7.01949e-07
-2.64642e-06
7.30755e-07
-2.59465e-06
7.29477e-07
-2.61515e-06
7.66024e-07
-2.58157e-06
7.72976e-07
-2.5807e-06
8.01248e-07
-2.56081e-06
8.04236e-07
-2.54303e-06
8.31245e-07
-2.54293e-06
8.58534e-07
-2.51934e-06
8.6656e-07
-2.53809e-06
8.98392e-07
-2.52862e-06
8.99619e-07
-2.5484e-06
9.29755e-07
-2.51813e-06
9.85914e-07
-2.48653e-06
1.02889e-06
-2.39894e-06
1.02657e-06
-2.34455e-06
1.08374e-06
-2.28373e-06
1.11774e-06
-2.23539e-06
1.14972e-06
-2.17965e-06
1.18554e-06
-2.12653e-06
1.21225e-06
-2.07482e-06
1.26416e-06
-2.07931e-06
1.34236e-06
-2.03917e-06
1.33386e-06
-2.03183e-06
1.41478e-06
-1.9636e-06
1.43364e-06
-1.92916e-06
1.51051e-06
-1.87028e-06
1.52667e-06
-1.8273e-06
1.58485e-06
-1.77729e-06
1.62255e-06
-1.73879e-06
1.68552e-06
-1.72156e-06
1.76922e-06
-1.67506e-06
1.85052e-06
-1.63319e-06
1.94841e-06
-1.57527e-06
2.02217e-06
-1.52976e-06
2.12304e-06
-1.46985e-06
2.17219e-06
-1.3866e-06
2.25272e-06
-1.31802e-06
2.31329e-06
-1.27131e-06
2.41671e-06
-1.22923e-06
2.48503e-06
-1.16456e-06
2.50584e-06
-1.08356e-06
2.53363e-06
-1.01222e-06
2.58205e-06
-9.33394e-07
2.61096e-06
-8.41304e-07
2.62847e-06
-6.98407e-07
2.69505e-06
-5.99345e-07
2.78216e-06
-4.61619e-07
2.81345e-06
-3.70141e-07
2.86608e-06
-2.42354e-07
2.88558e-06
-6.51766e-08
2.89587e-06
2.99431e-06
3.01722e-06
-1.41333e-06
-1.45977e-06
2.90742e-06
-1.00646e-06
-4.6789e-06
5.1809e-06
-8.33631e-07
5.13639e-06
-8.51165e-07
5.12527e-06
-1.09625e-06
-9.64015e-07
5.03043e-06
3.14886e-06
-1.05085e-06
-9.96225e-07
-4.72846e-06
-1.08483e-06
-4.80158e-06
-4.85689e-06
-1.28219e-06
-4.915e-06
-1.33591e-06
-5.00298e-06
-1.34195e-06
-5.09645e-06
-1.34704e-06
-5.14022e-06
-1.2484e-06
-5.27068e-06
-1.26179e-06
-5.24981e-06
-1.38302e-06
-5.29297e-06
-1.34961e-06
-5.3326e-06
-1.35997e-06
-5.34976e-06
-1.38686e-06
-5.34643e-06
-1.38943e-06
-5.36679e-06
-1.42339e-06
-5.47052e-06
-1.30415e-06
-5.51462e-06
-1.38445e-06
-5.57449e-06
-1.3584e-06
-5.57654e-06
-1.32598e-06
-5.63657e-06
-1.31954e-06
-5.61734e-06
-1.38843e-06
-5.70207e-06
-1.20933e-06
-5.6788e-06
-1.17569e-06
-5.72644e-06
-1.10814e-06
-5.80323e-06
-9.86839e-07
-5.81249e-06
-3.75376e-07
-5.76745e-06
1.04591e-06
1.32546e-06
-6.1297e-07
6.47724e-06
6.32236e-06
-6.90378e-07
-6.51164e-07
3.2516e-06
-1.01028e-06
3.34799e-06
6.24747e-06
-8.30446e-07
6.12074e-06
-9.74936e-07
6.00643e-06
-1.04905e-06
5.9618e-06
-1.03737e-06
-1.01867e-06
5.89739e-06
5.93616e-06
-1.03758e-06
-1.42809e-06
2.77734e-06
-1.47263e-06
2.59429e-06
-1.10401e-06
5.59142e-06
-5.36266e-07
6.43653e-06
-1.58388e-06
2.38057e-06
5.82912e-06
-3.91657e-07
6.35357e-06
-5.27375e-07
-5.79384e-07
6.48324e-06
6.44942e-06
-5.87915e-07
6.36497e-06
-5.31558e-07
-1.16065e-06
5.56956e-06
5.62281e-06
-1.18699e-06
5.67607e-06
-1.23002e-06
5.65925e-06
-1.1755e-06
5.64366e-06
-1.19404e-06
5.58818e-06
-1.12208e-06
5.51239e-06
-1.18922e-06
5.39438e-06
-1.23263e-06
5.3588e-06
-1.35774e-06
5.30914e-06
-1.39173e-06
5.29658e-06
-1.37914e-06
5.24931e-06
-1.39225e-06
5.12944e-06
-1.43017e-06
5.05985e-06
-1.50709e-06
4.97425e-06
-1.527e-06
4.97471e-06
-1.54772e-06
4.88084e-06
-1.49147e-06
4.8902e-06
-1.58365e-06
4.79962e-06
-1.48519e-06
4.77946e-06
-1.5317e-06
4.79082e-06
-1.65585e-06
4.78033e-06
-1.80966e-06
-1.88078e-06
-1.66767e-06
2.14156e-06
-1.79493e-06
1.90038e-06
-1.97423e-06
1.73786e-06
2.20114e-07
6.24891e-06
3.07243e-07
6.14491e-06
6.42928e-06
-9.71644e-07
-2.24386e-06
1.6329e-06
-8.96333e-07
5.0862e-06
6.03043e-06
-8.26967e-07
-1.48167e-06
6.72379e-06
-2.42819e-06
1.52275e-06
-6.76794e-07
5.29826e-06
6.0668e-06
-8.19996e-07
-2.66006e-06
1.41514e-06
-9.16783e-07
5.3605e-06
-6.76411e-07
5.13612e-06
-5.67283e-07
5.30514e-06
6.06357e-06
-8.49825e-07
-3.02085e-06
1.24481e-06
-9.34157e-07
5.38487e-06
-5.78408e-07
5.18213e-06
-5.95445e-07
5.30101e-06
6.21846e-06
-7.45323e-07
-1.04649e-06
5.48195e-06
-3.3498e-06
1.09272e-06
-1.05945e-06
5.51661e-06
-1.0702e-06
5.48087e-06
-1.03144e-06
5.41907e-06
-1.01604e-06
5.39225e-06
-9.92203e-07
5.37683e-06
-5.77879e-07
5.30827e-06
-5.76427e-07
5.26326e-06
-5.25244e-07
5.22742e-06
-6.91885e-07
5.32163e-06
-6.82688e-07
5.2524e-06
6.40221e-06
-7.80437e-07
-1.08379e-06
5.52082e-06
-4.21517e-07
3.05077e-06
-3.62636e-06
8.21656e-07
-4.42433e-06
-4.81388e-07
5.485e-06
2.04892e-07
-2.09767e-07
-4.0185e-06
-1.77149e-07
-3.95463e-06
-3.85122e-06
-3.88638e-07
-3.94806e-06
-3.35071e-07
-3.94701e-06
-3.95211e-07
-3.89221e-06
-9.02843e-08
-4.15096e-06
-4.17753e-06
-1.22747e-09
-1.47768e-08
-4.07919e-06
-6.62907e-07
5.22194e-06
-4.13567e-07
-4.0336e-06
1.06964e-07
-4.08828e-06
2.53657e-07
-4.07467e-06
-1.49754e-07
-4.09031e-06
5.33203e-06
-4.10942e-07
5.26663e-06
-4.37256e-07
5.26666e-06
-5.48953e-07
-4.75359e-07
-4.05951e-06
2.89702e-07
-4.16367e-06
4.12122e-07
-4.0088e-06
-2.36349e-07
-4.10419e-06
-5.3736e-07
-4.06099e-06
5.02212e-07
-4.16392e-06
-3.7521e-06
6.31051e-07
-3.87867e-06
5.59983e-07
-2.58102e-07
-4.20629e-06
-5.84654e-07
-4.09181e-06
7.14773e-07
-4.0331e-06
-3.75595e-07
-4.28493e-06
5.57863e-06
-2.75854e-08
-2.25808e-07
5.44358e-06
-6.3496e-07
-4.14455e-06
9.28994e-07
-3.85434e-06
-4.37499e-07
-4.34992e-06
-6.43991e-07
-4.22897e-06
1.12789e-06
-3.69353e-06
-5.45398e-07
-4.41336e-06
-7.62223e-07
-4.31966e-06
1.37598e-06
-3.61764e-06
-6.39175e-07
-4.4682e-06
-9.4356e-07
-4.39786e-06
1.58702e-06
-3.44251e-06
-6.88908e-07
-4.49246e-06
-9.72425e-07
-4.48722e-06
1.80289e-06
-3.15545e-06
-7.19044e-07
-4.51215e-06
-9.56215e-07
-4.57788e-06
1.97795e-06
-2.90971e-06
-7.86146e-07
-4.57802e-06
-1.05115e-06
-4.5441e-06
2.22762e-06
-2.6835e-06
-8.7032e-07
-4.52999e-06
-1.02295e-06
-4.5969e-06
2.42961e-06
-2.36746e-06
-8.11938e-07
-4.54729e-06
-1.06586e-06
-4.59731e-06
2.62375e-06
-2.07831e-06
-8.19529e-07
-4.55381e-06
-1.12253e-06
-4.6281e-06
2.7525e-06
-1.8942e-06
-8.49061e-07
-4.54946e-06
-4.5641e-06
-4.04904e-09
-1.16553e-06
-4.62574e-06
2.84886e-06
-1.72965e-06
2.90229e-06
-1.49457e-06
2.96137e-06
-1.17302e-06
-8.70333e-07
-4.51852e-06
-4.78038e-06
-1.69518e-06
-4.85732e-06
-1.50533e-06
-4.73721e-06
-1.28178e-06
-9.1248e-07
-4.5744e-06
-7.99983e-07
3.05617e-06
-6.56108e-07
3.01729e-06
-5.48445e-07
3.00551e-06
-4.54738e-07
2.99983e-06
-3.11235e-07
2.87763e-06
-1.91457e-07
2.78287e-06
-7.84758e-08
2.67429e-06
4.1918e-08
2.57853e-06
1.3678e-07
2.45642e-06
2.54112e-07
2.34178e-06
3.54725e-07
2.29953e-06
4.77353e-07
2.2236e-06
5.93351e-07
2.16149e-06
7.29627e-07
2.09081e-06
8.62549e-07
2.05409e-06
9.99239e-07
1.99453e-06
1.09422e-06
1.93896e-06
1.20133e-06
1.88091e-06
1.28259e-06
1.82378e-06
1.37486e-06
1.74975e-06
1.46691e-06
1.69068e-06
1.53452e-06
1.64892e-06
1.595e-06
1.58579e-06
1.65397e-06
1.54181e-06
1.69759e-06
1.49543e-06
1.7113e-06
1.45785e-06
1.76446e-06
1.39303e-06
1.79422e-06
1.35841e-06
1.8001e-06
1.31931e-06
1.83514e-06
1.24261e-06
1.86172e-06
1.17518e-06
1.89195e-06
1.16145e-06
1.92452e-06
1.08549e-06
1.97815e-06
1.05697e-06
2.02748e-06
1.00921e-06
2.08876e-06
9.70267e-07
2.14732e-06
9.45733e-07
2.17413e-06
9.40321e-07
2.23323e-06
8.93224e-07
2.2573e-06
8.75558e-07
2.26865e-06
8.38263e-07
2.30938e-06
7.61641e-07
2.32541e-06
7.17354e-07
2.3269e-06
6.82988e-07
2.32789e-06
6.46745e-07
2.36369e-06
6.21179e-07
2.40518e-06
6.40583e-07
2.4547e-06
6.12422e-07
2.48472e-06
6.05425e-07
2.49504e-06
5.9619e-07
2.49171e-06
5.75473e-07
2.51723e-06
5.20167e-07
2.54476e-06
5.07004e-07
2.58323e-06
4.87534e-07
2.62421e-06
4.65752e-07
2.6315e-06
4.52727e-07
2.63533e-06
4.35428e-07
2.65039e-06
3.91703e-07
3.64815e-07
3.95078e-07
-2.67532e-06
4.09792e-07
-2.64976e-06
4.09834e-07
-2.62746e-06
3.68187e-07
-2.5626e-06
3.71816e-07
-2.55616e-06
3.71609e-07
-2.5241e-06
3.64475e-07
-2.49552e-06
3.49278e-07
-2.47205e-06
3.06184e-07
-2.44533e-06
2.68793e-07
-2.46107e-06
2.59529e-07
-2.47167e-06
2.22984e-07
-2.47225e-06
2.14067e-07
-2.48744e-06
1.84655e-07
-2.47446e-06
1.72436e-07
-2.47707e-06
1.20162e-07
-2.46734e-06
1.0844e-07
-2.48772e-06
5.98562e-08
-2.47487e-06
2.93991e-08
-2.47872e-06
-1.37199e-09
-2.48783e-06
-1.55303e-08
-2.48983e-06
-5.69433e-08
-2.47452e-06
-7.66949e-08
-2.50075e-06
-1.00404e-07
-2.50411e-06
-1.12817e-07
-2.49267e-06
-1.34208e-07
-2.47626e-06
-1.58584e-07
-2.48633e-06
-1.79542e-07
-2.45478e-06
-1.90484e-07