/*--------------------------------*- C++ -*----------------------------------*\
| =========                 |                                                 |
| \\      /  F ield         | OpenFOAM: The Open Source CFD Toolbox           |
|  \\    /   O peration     | Version:  v1612+                                |
|   \\  /    A nd           | Web:      www.OpenFOAM.com                      |
|    \\/     M anipulation  |                                                 |
\*---------------------------------------------------------------------------*/
FoamFile
{
    version     2.0;
    format      ascii;
    class       volVectorField;
    location    "0.5";
    object      U;
}
// * * * * * * * * * * * * * * * * * * * * * * * * * * * * * * * * * * * * * //

dimensions      [0 1 -1 0 0 0 0];

internalField   nonuniform List<vector> 
113025
(
(0.47847 0.00940193 0)
(0.485268 0.00383485 -8.02117e-23)
(0.464372 -0.0667777 1.54691e-22)
(-0.223301 -0.108392 5.95686e-22)
(0.462403 -0.0636963 -8.4134e-23)
(0.460673 -0.0613377 -1.91535e-22)
(0.458764 -0.0587813 2.4326e-22)
(0.457096 -0.0562984 0)
(0.455535 -0.0537928 3.68047e-22)
(0.459426 -0.0279704 0)
(0.458574 -0.0262203 -2.61492e-23)
(0.457594 -0.02411 0)
(0.459003 -0.0378987 0)
(0.458279 -0.036084 0)
(0.479712 0.00819491 -1.06557e-24)
(0.463513 -0.0706029 0)
(-0.0181602 -0.287013 5.19623e-23)
(-0.256751 -0.0937161 4.53333e-22)
(-0.338592 -0.00304163 6.86935e-22)
(0.458568 0.055601 1.82867e-21)
(0.467756 -0.0125312 1.90575e-22)
(0.460974 0.0525015 -1.42569e-22)
(0.471845 -0.0107928 1.46388e-22)
(0.471388 -0.00997714 -3.13415e-22)
(0.468419 -0.0115756 -1.42301e-23)
(0.274605 -0.0196339 -3.13281e-21)
(0.275902 -0.0150425 3.14569e-21)
(0.278265 -0.0104815 8.23736e-22)
(0.276573 -0.0340524 8.11583e-22)
(0.280335 -0.0273895 -6.12571e-22)
(0.278233 -0.0251522 -2.03438e-22)
(-0.335168 0.00448283 -2.11483e-21)
(-0.330109 -0.0246987 -6.58264e-22)
(0.283324 -0.00391669 -3.11086e-21)
(0.281934 -0.0358838 1.10564e-22)
(-0.333229 0.0148638 5.12702e-22)
(-0.325753 -0.0289625 9.85478e-22)
(0.287847 0.000721432 -3.7317e-22)
(0.286534 -0.0418975 4.78951e-23)
(-0.330677 0.0234896 1.19095e-21)
(-0.322034 -0.038285 2.28743e-21)
(0.291399 0.00546415 0)
(0.47383 -0.00757323 0)
(0.291434 -0.0456541 9.54709e-23)
(-0.328581 0.0384568 6.40395e-22)
(-0.314798 -0.0485455 -4.84754e-22)
(0.295368 0.00904375 -8.98599e-22)
(0.474917 -0.00641784 -1.15562e-22)
(0.29652 -0.0505067 -9.46497e-23)
(-0.32759 0.0525366 -6.35679e-22)
(-0.304909 -0.0610739 7.88311e-22)
(0.300463 0.0125864 -6.68203e-22)
(0.299729 -0.0540287 2.79505e-22)
(-0.322732 0.0699298 -3.09502e-22)
(-0.279958 -0.0833409 -2.44393e-21)
(-0.294437 -0.073661 0)
(0.306022 0.0162855 -8.56323e-23)
(0.302829 -0.0578013 5.2553e-25)
(-0.315814 0.0872661 0)
(0.310471 0.0200691 1.35495e-21)
(0.481804 -0.00174009 8.41396e-24)
(0.480597 -0.0034703 -2.10655e-23)
(0.478757 -0.00400877 5.28483e-23)
(0.477636 -0.00438722 -1.24635e-22)
(0.4757 -0.00487433 6.72864e-23)
(0.308106 -0.0617452 1.77145e-22)
(-0.307689 0.10566 0)
(0.315433 0.0242502 0)
(0.313369 -0.0658439 8.49676e-23)
(-0.293029 0.124084 -1.19285e-21)
(0.320467 0.0274276 -1.96142e-21)
(0.318207 -0.0697574 1.64132e-22)
(-0.272618 0.145602 -1.65069e-23)
(0.32317 0.0318928 6.38387e-22)
(0.322037 -0.0742677 0)
(-0.257617 0.163247 -2.09871e-22)
(0.328835 0.0351409 -1.86465e-21)
(0.324512 -0.077972 -7.67434e-23)
(-0.235897 0.182833 8.15453e-22)
(0.333307 0.0394569 -6.01674e-22)
(0.33077 -0.0818569 -7.3702e-23)
(-0.216672 0.194094 2.6079e-22)
(0.335806 0.0431281 -6.01152e-22)
(0.336735 -0.0860654 1.42343e-22)
(-0.199189 0.208135 4.34594e-22)
(0.342083 0.0472575 5.85e-22)
(0.338018 -0.0912374 1.39345e-22)
(-0.181849 0.220722 -3.00332e-23)
(0.343939 0.0507501 5.78037e-22)
(0.343366 -0.0941485 -6.80248e-23)
(-0.159603 0.228582 1.10664e-21)
(0.347789 0.0545343 5.73584e-22)
(0.346996 -0.0980321 3.29244e-23)
(-0.132925 0.232648 -2.97245e-22)
(0.353416 0.057632 0)
(-0.335988 -0.0166381 1.32631e-21)
(-0.3354 -0.011878 -6.08286e-23)
(0.352097 -0.101044 3.21371e-23)
(-0.102402 0.234744 1.91939e-22)
(-0.0722246 0.235158 4.41021e-23)
(-0.0460211 0.235598 2.04261e-22)
(0.357023 0.0608658 1.0983e-21)
(0.366917 -0.111849 -4.17443e-23)
(0.363337 -0.108871 1.20436e-22)
(0.358732 -0.105128 0)
(-0.113518 -0.252594 -9.82926e-22)
(-0.109899 -0.239938 0)
(0.360087 0.0637415 2.61889e-22)
(-0.0233433 0.237013 0)
(-0.0251124 0.242837 0)
(-0.0229176 0.245467 3.31636e-22)
(-0.0176146 0.244782 3.5339e-23)
(-0.00976853 0.240877 -3.55544e-23)
(-0.000859823 0.23386 0)
(0.0088982 0.225943 0)
(0.0186902 0.217533 0)
(0.0280483 0.209148 -2.28517e-23)
(0.0364589 0.201313 0)
(0.0442381 0.194441 -7.21689e-23)
(0.051338 0.188076 5.53621e-23)
(0.0577468 0.182232 -1.3095e-22)
(0.0642274 0.176856 -7.67908e-23)
(0.0698256 0.171381 0)
(0.0755508 0.165782 7.66523e-23)
(0.0813528 0.160356 -1.58167e-22)
(0.0876997 0.154307 -4.92885e-23)
(0.0943912 0.147955 1.14471e-22)
(0.101466 0.141555 -1.06842e-22)
(0.107892 0.135686 2.1287e-23)
(0.113979 0.130256 4.00055e-23)
(0.119252 0.12571 -8.50453e-23)
(0.124288 0.121541 8.69233e-23)
(0.128917 0.117519 -1.39533e-24)
(0.133412 0.113377 -8.11757e-24)
(0.137814 0.109039 -3.60384e-23)
(0.142077 0.104572 -2.17929e-23)
(0.146414 0.100127 0)
(0.150343 0.0955185 -4.76171e-24)
(0.153905 0.0913526 2.4949e-24)
(0.156864 0.0875082 5.66731e-24)
(0.159251 0.0842733 -1.00847e-24)
(0.160905 0.0815148 -5.29522e-26)
(0.162395 0.0792158 4.06894e-24)
(0.163718 0.0772118 4.25419e-24)
(0.165129 0.0752255 1.38658e-24)
(0.166896 0.0732618 -4.75188e-24)
(0.168884 0.0710953 9.91916e-24)
(0.171174 0.0688146 9.08181e-24)
(0.173643 0.0663404 -1.06083e-24)
(0.17624 0.0638488 -7.56077e-25)
(0.178804 0.0614006 -1.56633e-23)
(0.181207 0.0590515 1.35153e-24)
(0.183424 0.0568997 -3.07902e-24)
(0.185453 0.05493 3.93992e-24)
(0.187368 0.0531373 3.02066e-24)
(0.189211 0.0514163 0)
(0.191045 0.0497445 0)
(0.192848 0.0480162 0)
(0.19461 0.0463115 -7.36313e-24)
(0.196283 0.0446234 0)
(0.197878 0.043057 -3.62088e-23)
(0.199407 0.0415861 2.96584e-23)
(0.200891 0.0401888 3.60201e-24)
(0.20232 0.0388552 -8.95174e-25)
(0.203732 0.0375457 -7.55818e-24)
(0.205094 0.0362889 -7.32551e-24)
(0.206412 0.0350239 -4.16223e-25)
(0.207686 0.0338227 -1.46433e-23)
(0.20889 0.0326618 -3.59213e-24)
(0.207701 0.0313033 0)
(0.206601 0.0300896 -6.09293e-24)
(0.205445 0.0286389 2.12868e-24)
(0.204437 0.0273041 0)
(0.203438 0.0258528 0)
(0.202513 0.0244617 9.90841e-24)
(0.201629 0.0229917 0)
(0.200788 0.0215914 0)
(0.199821 0.0201039 1.1015e-23)
(0.199096 0.0186104 -6.848e-23)
(0.198441 0.0170849 5.6746e-23)
(0.19794 0.0154716 0)
(0.197275 0.0139471 0)
(0.196768 0.0122347 0)
(0.196373 0.0107322 0)
(0.19598 0.00882161 0)
(0.195637 0.00727279 0)
(0.195254 0.00524664 3.02963e-23)
(0.19514 0.00372817 0)
(0.194927 0.00166681 -3.8182e-25)
(0.194572 -0.000270221 -6.31002e-24)
(0.194798 -0.00216103 -7.99985e-25)
(0.194382 -0.00349088 -2.58426e-23)
(0.19413 -0.00523048 6.40493e-24)
(0.194811 -0.00709114 -1.32016e-23)
(0.19492 -0.00873058 1.33583e-23)
(0.195057 -0.0105052 1.34929e-23)
(0.195155 -0.0122133 -1.34861e-23)
(0.195604 -0.0140333 5.51344e-23)
(0.195728 -0.0157208 -5.51965e-23)
(0.196277 -0.0176097 0)
(0.19672 -0.0190982 0)
(0.19737 -0.020951 -2.74371e-23)
(0.198037 -0.0224088 4.09768e-23)
(0.198576 -0.0242295 5.75415e-26)
(0.199168 -0.0256649 -6.73043e-24)
(0.19985 -0.0274723 3.29048e-23)
(0.200693 -0.0289593 -1.92307e-23)
(0.201637 -0.0307664 0)
(0.202641 -0.0322311 -3.11381e-24)
(0.203611 -0.0338416 1.2454e-23)
(0.204618 -0.0352102 0)
(0.205745 -0.0366803 0)
(0.206941 -0.0380807 -2.94154e-24)
(0.208201 -0.039495 -6.41568e-24)
(0.209432 -0.0407632 4.987e-24)
(0.210658 -0.0420248 6.97053e-25)
(0.211997 -0.0434038 0)
(0.213194 -0.0445549 -2.09736e-23)
(0.214456 -0.0458075 -3.03557e-23)
(0.213192 -0.0472239 3.10597e-23)
(0.211856 -0.0487458 -3.09331e-23)
(0.210464 -0.0503589 1.02564e-23)
(0.209 -0.0520603 1.98668e-23)
(0.207508 -0.0538404 0)
(0.205986 -0.0556952 0)
(0.204541 -0.0576062 3.13694e-23)
(0.203138 -0.0594323 -4.7563e-23)
(0.20192 -0.0612978 5.14338e-24)
(0.200793 -0.0630708 8.14653e-23)
(0.199793 -0.0648556 -1.10871e-22)
(0.198669 -0.0666136 5.89296e-23)
(0.197329 -0.0685262 0)
(0.195409 -0.0706373 7.53757e-23)
(0.192865 -0.0731115 -5.56505e-23)
(0.18956 -0.075914 -8.8244e-24)
(0.185831 -0.0789323 1.72316e-23)
(0.181997 -0.0820224 0)
(0.178216 -0.0851869 3.00645e-23)
(0.174794 -0.0882798 -2.31172e-23)
(0.171902 -0.0912222 -1.37064e-23)
(0.169362 -0.0940803 -6.98752e-24)
(0.167017 -0.0967475 7.67016e-25)
(0.164589 -0.0994929 1.3401e-23)
(0.161902 -0.102194 -1.55251e-23)
(0.158893 -0.105226 8.61981e-24)
(0.15554 -0.108398 2.28134e-24)
(0.152318 -0.111725 5.85472e-24)
(0.149225 -0.114936 -3.01447e-26)
(0.146737 -0.118291 -4.52492e-24)
(0.144584 -0.121435 -3.48638e-24)
(0.14223 -0.125039 6.21437e-24)
(0.139338 -0.129523 9.2458e-24)
(0.135027 -0.135795 -8.80852e-24)
(0.129679 -0.143824 -1.57417e-24)
(0.124003 -0.152361 -4.63921e-24)
(0.119337 -0.160222 -1.58826e-24)
(0.116413 -0.166827 9.63535e-24)
(0.114542 -0.172645 -9.67423e-24)
(0.113102 -0.17873 -1.30959e-23)
(0.111247 -0.184437 6.96495e-23)
(0.109614 -0.189133 -7.00416e-23)
(0.107134 -0.19337 -2.09451e-23)
(0.102692 -0.198251 0)
(0.0961512 -0.203454 -2.25277e-23)
(0.088701 -0.208802 6.15335e-23)
(0.0803577 -0.21432 -1.40898e-22)
(0.0713188 -0.22102 3.45266e-23)
(0.0614984 -0.228181 1.07292e-23)
(0.052446 -0.234867 -1.20709e-23)
(0.0426759 -0.241288 6.30576e-23)
(0.0322322 -0.248892 -3.67961e-22)
(0.0205779 -0.257392 2.67044e-22)
(0.00980292 -0.265564 1.50154e-21)
(0.000330037 -0.273294 1.36189e-21)
(-0.00917325 -0.280828 -7.22279e-22)
(-0.0996362 -0.260426 5.43069e-22)
(0.36393 0.06682 -5.54921e-24)
(0.466338 -0.0153009 4.17729e-22)
(0.46543 -0.0144782 1.61681e-23)
(0.462374 -0.0160334 -5.09323e-22)
(0.461204 -0.0149199 5.56809e-22)
(-0.0843341 -0.267681 -4.78657e-22)
(0.367099 0.0704175 4.84108e-22)
(0.46646 0.028718 6.18654e-23)
(0.375366 0.0725293 -4.44604e-22)
(0.377567 0.0763502 1.73134e-21)
(0.379977 0.0759387 -4.08597e-22)
(0.385534 0.0757339 -1.94974e-21)
(0.388294 0.0753666 7.40272e-22)
(0.392938 0.0750063 7.02225e-22)
(0.395761 0.073941 -3.44873e-22)
(0.400304 0.0737177 6.58373e-22)
(0.403403 0.0730424 -9.39937e-22)
(0.407138 0.072194 -5.9202e-22)
(0.411039 0.0716951 0)
(0.414924 0.0710418 0)
(0.419395 0.0703572 5.03296e-22)
(0.422254 0.0688831 0)
(0.427522 0.068809 4.23896e-22)
(0.429619 0.0671346 7.99213e-22)
(0.434511 0.0667107 -2.20175e-23)
(0.436334 0.0650138 2.13471e-23)
(0.441249 0.0646963 3.23156e-22)
(0.442995 0.0632332 -9.19827e-24)
(0.447018 0.0625716 1.21169e-22)
(0.449015 0.0613881 -1.19542e-23)
(0.451401 0.0606074 1.39982e-23)
(0.45359 0.05859 0)
(0.456114 0.05667 5.20177e-22)
(0.465997 0.0317687 4.08759e-24)
(0.468269 0.0262119 2.51792e-23)
(-0.0447267 -0.276814 3.6557e-22)
(-0.0634922 -0.276947 -4.45621e-22)
(0.468763 0.0239549 0)
(0.47101 0.0216102 -1.05423e-22)
(0.472368 0.0194765 1.8746e-22)
(0.473134 0.0174104 1.33149e-22)
(0.473401 0.0159321 0)
(0.474055 0.0145463 -4.55402e-23)
(0.474289 0.0124206 0)
(-0.110439 -0.227299 0)
(0.460901 -0.0762472 0)
(-0.119563 -0.210667 -9.72192e-22)
(0.459918 -0.0797209 3.64065e-23)
(0.46456 0.0359995 1.1447e-24)
(-0.13446 -0.189577 -2.49352e-22)
(0.461884 0.0475534 -1.03131e-22)
(0.462755 0.0436405 4.10148e-23)
(0.463681 0.040889 -2.89023e-23)
(0.462789 0.0383416 -7.34419e-23)
(0.459108 -0.0851852 0)
(0.457056 -0.0892012 -7.03068e-23)
(0.453 -0.0920703 -6.36301e-24)
(0.450464 -0.0925283 0)
(0.445265 -0.0949898 1.55941e-23)
(0.443461 -0.0963038 0)
(0.437971 -0.0976278 0)
(0.435389 -0.099517 3.58348e-22)
(0.430122 -0.100383 -8.35118e-23)
(0.427614 -0.102452 -2.22737e-22)
(0.421695 -0.102701 4.46452e-22)
(0.419159 -0.104445 -3.52389e-22)
(0.414218 -0.105715 1.31327e-22)
(0.410285 -0.106102 1.34908e-22)
(0.406139 -0.10692 0)
(0.40124 -0.108319 3.04807e-22)
(0.398044 -0.109188 0)
(0.392048 -0.109266 0)
(0.390011 -0.110946 4.14341e-23)
(0.38281 -0.110072 -2.34783e-22)
(0.38183 -0.112951 -3.91912e-22)
(0.374548 -0.111761 0)
(0.373506 -0.112366 2.75692e-23)
(-0.143468 -0.170511 -2.54894e-22)
(-0.152555 -0.15237 3.86769e-22)
(0.481149 0.00640825 7.7656e-25)
(-0.16424 -0.137326 0)
(0.485359 0.00183019 6.99367e-23)
(0.485197 0.00335101 7.80531e-23)
(0.483515 0.00184076 0)
(0.482623 0.000234197 2.16893e-24)
(0.481992 0.00615845 5.50752e-25)
(-0.177394 -0.126842 0)
(0.458137 -0.0415938 -6.76041e-23)
(0.45993 -0.0179287 -1.88965e-23)
(0.476132 0.0109131 0)
(0.482876 0.00419359 2.52012e-23)
(-0.192854 -0.118488 2.13177e-22)
(0.45675 -0.0446313 -2.78143e-22)
(0.454737 -0.0483639 -7.73717e-23)
(0.457946 -0.0194411 6.58518e-22)
(0.458294 -0.0303022 0)
(0.477419 0.00976479 -3.42399e-23)
(0.484348 0.00393099 -3.95567e-23)
(-0.221342 -0.107579 -2.7456e-22)
(0.454758 -0.0517738 -7.24366e-23)
(0.456082 -0.0224176 0)
(0.457278 -0.0337075 2.80933e-22)
(0.478443 0.00820263 3.37378e-23)
(0.460831 -0.0670968 4.89973e-23)
(-0.244653 -0.103137 1.33521e-22)
(0.458926 -0.0653426 -4.91479e-23)
(0.457617 -0.0626108 2.46604e-22)
(0.456144 -0.060064 2.80051e-23)
(0.454578 -0.0575413 0)
(0.45314 -0.055315 2.79753e-23)
(0.457468 -0.0287856 0)
(0.456281 -0.0265449 4.69612e-22)
(0.455178 -0.0247796 6.70087e-22)
(0.457007 -0.0391422 -1.49645e-22)
(0.455403 -0.03673 4.6291e-22)
(0.4795 0.00756295 -4.19377e-24)
(0.458834 -0.0723832 -9.98138e-23)
(-0.0348398 -0.273211 7.10338e-22)
(-0.275136 -0.0866494 9.36688e-24)
(-0.333651 0.00210796 0)
(0.458564 0.0505016 3.68621e-22)
(0.474126 0.0128245 4.87251e-23)
(-0.0212403 -0.266032 7.14463e-22)
(0.48424 0.00219831 1.60317e-22)
(0.456399 -0.0176701 3.22848e-22)
(0.483054 0.00389733 -1.49739e-22)
(0.454184 -0.0455714 -2.53664e-22)
(0.483359 0.00148699 0)
(0.467701 -0.0106339 2.04243e-22)
(0.279822 -0.0169857 0)
(0.279479 -0.0138022 8.14669e-22)
(0.282752 -0.00852244 -8.0977e-22)
(0.284571 -0.0308281 -1.96468e-22)
(0.280977 -0.0287511 1.98632e-22)
(0.283956 -0.021894 2.05203e-22)
(-0.331258 0.00862335 -1.38174e-21)
(-0.325646 -0.0269058 6.54452e-22)
(0.28759 -0.00637517 3.37217e-21)
(0.288154 -0.0373198 -1.90192e-22)
(-0.329147 0.0188079 -4.72243e-23)
(-0.322591 -0.0324111 -3.21683e-21)
(0.292705 -0.00226655 -7.15994e-22)
(0.471856 -0.00906727 7.19945e-23)
(0.470544 -0.00811643 0)
(0.468393 -0.00989023 1.81494e-22)
(0.291938 -0.0413597 0)
(-0.326495 0.0304406 -1.6702e-22)
(-0.317658 -0.0428419 -9.57216e-22)
(0.298705 0.000855659 1.42286e-21)
(0.473108 -0.00712668 -1.31546e-22)
(0.29588 -0.0461873 -4.68348e-22)
(-0.323857 0.0439203 -7.04803e-24)
(-0.311455 -0.0555567 1.40197e-21)
(0.303677 0.00576498 1.59623e-21)
(0.298912 -0.0502327 -5.55775e-22)
(-0.318977 0.0585496 -9.26723e-22)
(-0.287949 -0.0776641 2.38791e-21)
(-0.300491 -0.067504 -1.3569e-21)
(0.308016 0.0101772 -1.72161e-22)
(0.304219 -0.0551384 -9.11284e-23)
(-0.311079 0.0757182 3.09493e-22)
(0.311351 0.01515 8.46037e-23)
(0.479387 -0.00230246 1.61389e-23)
(0.478953 -0.00248028 0)
(0.476299 -0.0030784 -3.30484e-23)
(0.475916 -0.00322694 1.13489e-22)
(0.474482 -0.00517981 2.48535e-23)
(0.308848 -0.0591919 -2.65554e-22)
(-0.301669 0.0917966 0)
(0.316473 0.0188777 0)
(0.312724 -0.0630554 -2.1615e-23)
(-0.291234 0.11006 -5.81144e-22)
(0.319506 0.0236264 6.41103e-22)
(0.316651 -0.0663552 -5.81776e-22)
(-0.27731 0.131718 0)
(0.324548 0.0275903 5.86832e-24)
(0.32077 -0.0695546 -1.59781e-22)
(-0.260214 0.149945 -1.32713e-21)
(0.32809 0.0317471 -6.68154e-24)
(0.326052 -0.0736506 -3.05755e-22)
(-0.238504 0.16921 1.07456e-21)
(0.33302 0.0352676 1.21563e-21)
(0.331495 -0.0781627 -2.96788e-22)
(-0.223048 0.18021 -5.10604e-22)
(0.336228 0.0394252 -3.46655e-24)
(0.334846 -0.0817064 0)
(-0.202574 0.194411 -8.54582e-24)
(0.340473 0.0427561 5.88471e-22)
(0.337244 -0.0856825 -3.40778e-24)
(-0.185839 0.206527 -2.34781e-22)
(0.344574 0.046944 -4.72723e-24)
(0.3446 -0.0892121 -3.4243e-23)
(-0.16942 0.216343 -9.44112e-22)
(0.348945 0.0499786 -5.57208e-22)
(0.347594 -0.0938363 6.82112e-23)
(-0.150039 0.224086 -1.17688e-22)
(0.352309 0.0532358 0)
(-0.32986 -0.0187634 -5.7586e-22)
(0.353109 -0.0981236 -2.90669e-22)
(-0.126349 0.229746 -3.701e-22)
(-0.0991166 0.23301 2.66745e-23)
(-0.0721356 0.235923 1.37959e-22)
(0.355848 0.0569101 -1.08009e-21)
(0.367313 -0.10822 0)
(0.361708 -0.104392 -1.17846e-22)
(0.357358 -0.100694 -5.01473e-22)
(0.359591 0.0604352 2.70051e-22)
(-0.047184 0.239747 0)
(-0.0445249 0.241167 0)
(-0.0380686 0.239805 -2.73962e-22)
(-0.0292176 0.23589 -5.44937e-23)
(-0.0190919 0.230024 1.71074e-23)
(-0.00874963 0.222275 0)
(0.00145294 0.214786 0)
(0.0107725 0.207216 0)
(0.0193141 0.200206 1.0633e-22)
(0.0265088 0.193806 -1.71866e-22)
(0.0335051 0.187959 -1.39655e-22)
(0.0404085 0.182436 1.38374e-22)
(0.0473964 0.176711 2.34197e-22)
(0.0546191 0.171106 7.6999e-24)
(0.0621252 0.165312 1.41335e-22)
(0.0699508 0.159162 3.98633e-23)
(0.0780111 0.153267 0)
(0.0858921 0.146933 4.63511e-23)
(0.0934822 0.14076 -7.00577e-24)
(0.100304 0.13496 1.14685e-23)
(0.106437 0.129814 -2.13071e-23)
(0.111944 0.125126 1.71155e-23)
(0.116962 0.120995 0)
(0.121783 0.116984 -2.74117e-23)
(0.126373 0.112913 -2.82653e-23)
(0.130826 0.108685 7.73286e-24)
(0.134905 0.104482 3.13157e-23)
(0.138497 0.100301 4.62576e-23)
(0.141787 0.0963581 1.52865e-23)
(0.144409 0.0925811 -9.02542e-24)
(0.146401 0.089218 -3.29191e-24)
(0.148231 0.0861543 2.57035e-24)
(0.149753 0.0833958 -6.44743e-25)
(0.151364 0.0808017 3.03765e-24)
(0.15344 0.0782481 -5.96936e-24)
(0.155894 0.0757659 -4.41894e-24)
(0.158717 0.0732256 8.89147e-25)
(0.161861 0.0706974 -8.90071e-25)
(0.165097 0.0681921 0)
(0.168368 0.0657667 -3.93278e-24)
(0.171531 0.0633104 3.42977e-24)
(0.174488 0.0610271 4.07076e-24)
(0.17716 0.0587568 6.49754e-24)
(0.179575 0.0567206 -6.34051e-24)
(0.181688 0.0547268 -1.33633e-23)
(0.183661 0.0529267 2.17124e-23)
(0.185516 0.0511732 -2.8596e-23)
(0.187406 0.0495477 2.97526e-23)
(0.189238 0.0478418 0)
(0.191136 0.0462278 0)
(0.192946 0.0445247 7.3187e-24)
(0.194744 0.0429349 0)
(0.196393 0.0413637 0)
(0.198009 0.0399759 0)
(0.199516 0.0386114 3.15846e-23)
(0.201007 0.0373549 -3.14187e-23)
(0.202424 0.0360656 2.311e-23)
(0.203829 0.034866 -2.35347e-23)
(0.205149 0.0336269 -8.26442e-25)
(0.206455 0.0324614 7.45519e-24)
(0.205299 0.0311329 3.94456e-24)
(0.204116 0.0296542 2.04035e-24)
(0.203072 0.0283023 2.26289e-24)
(0.202021 0.0267685 4.71878e-24)
(0.201056 0.0253595 3.04542e-23)
(0.200123 0.023797 -4.0812e-23)
(0.199204 0.0223127 4.37573e-23)
(0.198198 0.0207449 -4.37878e-23)
(0.197466 0.0192465 2.26361e-23)
(0.196793 0.0176808 -2.30876e-23)
(0.196254 0.0161069 0)
(0.195551 0.0144872 4.82884e-23)
(0.195061 0.0127188 -4.76886e-23)
(0.194582 0.0111053 -2.45849e-23)
(0.194197 0.00912667 5.22581e-23)
(0.193795 0.00756476 -1.21617e-23)
(0.1934 0.00551376 -3.04239e-24)
(0.193253 0.0040104 -2.53478e-23)
(0.19282 0.00178747 2.81199e-23)
(0.192575 -8.62868e-05 6.30769e-24)
(0.193131 -0.00204473 7.98092e-25)
(0.192787 -0.00353391 1.29421e-23)
(0.192332 -0.00531006 1.98667e-23)
(0.193031 -0.00707548 1.99435e-23)
(0.193146 -0.00885998 -1.33716e-23)
(0.193273 -0.0108287 0)
(0.19337 -0.0125999 0)
(0.193841 -0.0144714 0)
(0.193924 -0.016166 5.59754e-23)
(0.194522 -0.0180399 -5.60169e-23)
(0.194963 -0.0196955 -5.57447e-23)
(0.19564 -0.0216041 6.96456e-23)
(0.196315 -0.0231646 -2.58202e-23)
(0.196932 -0.0250787 1.37604e-23)
(0.197569 -0.0265546 1.35376e-23)
(0.19827 -0.0284046 -2.67579e-23)
(0.199083 -0.0298613 0)
(0.200026 -0.0316589 0)
(0.201101 -0.0331576 0)
(0.202132 -0.0348637 -1.89949e-23)
(0.203185 -0.036271 -4.46752e-26)
(0.20433 -0.037839 -6.03256e-24)
(0.205545 -0.0391832 2.01575e-26)
(0.206831 -0.0406193 7.19045e-25)
(0.208151 -0.0420069 -1.13856e-23)
(0.209369 -0.0433099 -2.75165e-24)
(0.21074 -0.0446794 8.09897e-24)
(0.211979 -0.0459077 -5.37354e-24)
(0.210684 -0.0473753 -3.205e-23)
(0.209295 -0.0488946 2.14382e-23)
(0.207799 -0.0504941 6.44513e-23)
(0.206194 -0.0521934 -4.34931e-23)
(0.204527 -0.0540169 4.38759e-23)
(0.202823 -0.055916 -3.28839e-23)
(0.201096 -0.0578325 0)
(0.199438 -0.0598444 4.32195e-23)
(0.197858 -0.0618398 -8.57438e-23)
(0.196495 -0.0638568 7.30137e-23)
(0.195299 -0.0657729 -1.10562e-23)
(0.194347 -0.0676523 -4.10188e-23)
(0.193442 -0.0694204 -1.95601e-23)
(0.192465 -0.0712462 -5.84278e-23)
(0.191068 -0.0731601 7.55813e-23)
(0.189023 -0.0753014 -3.7341e-23)
(0.186387 -0.0777888 0)
(0.182955 -0.0806619 2.11155e-24)
(0.178924 -0.08394 -3.03692e-23)
(0.174715 -0.0873505 3.29395e-23)
(0.17056 -0.090849 3.19525e-23)
(0.166737 -0.0941669 -2.68134e-23)
(0.163303 -0.0973154 9.22316e-24)
(0.160341 -0.0999539 -1.13489e-23)
(0.15763 -0.102491 -3.01984e-24)
(0.15483 -0.105081 3.82325e-25)
(0.151924 -0.10804 2.74765e-24)
(0.148682 -0.111518 -4.30062e-24)
(0.145632 -0.115469 1.79105e-24)
(0.142724 -0.119429 6.22555e-24)
(0.140443 -0.123584 -7.09608e-24)
(0.138628 -0.127624 -1.14722e-23)
(0.13637 -0.132595 1.54714e-23)
(0.133425 -0.138823 0)
(0.128951 -0.146305 -1.93459e-23)
(0.1239 -0.154373 3.64534e-23)
(0.11864 -0.161858 -1.85654e-23)
(0.113843 -0.168695 7.08198e-23)
(0.10902 -0.175394 0)
(0.104055 -0.18174 0)
(0.099325 -0.187481 1.45986e-22)
(0.095308 -0.191564 -1.24048e-23)
(0.0908549 -0.19486 5.5794e-24)
(0.0857052 -0.198116 -6.63852e-23)
(0.0798447 -0.201855 0)
(0.0730211 -0.205956 0)
(0.0652101 -0.211173 0)
(0.0559846 -0.217697 -1.06445e-23)
(0.0459097 -0.224576 1.19743e-23)
(0.036226 -0.230703 -4.04864e-24)
(0.0268986 -0.236199 1.12931e-22)
(0.0162155 -0.24268 -5.53773e-22)
(0.00401142 -0.250995 -2.40483e-21)
(-0.00948083 -0.25962 6.16688e-22)
(-0.102893 -0.249568 5.37982e-22)
(-0.0996393 -0.23883 -4.6284e-22)
(0.364062 0.0635103 5.05608e-22)
(0.466429 -0.0129362 2.2943e-22)
(0.463775 -0.0131722 -2.12297e-22)
(0.462442 -0.0135454 -2.53385e-22)
(0.459521 -0.0135694 -8.97805e-22)
(-0.0881579 -0.257341 2.3237e-23)
(0.368823 0.0666247 -4.85105e-22)
(0.372701 0.0697393 -9.18444e-22)
(0.375793 0.0719969 6.32522e-24)
(0.382277 0.0713836 -4.21363e-22)
(0.383294 0.070929 -1.22408e-23)
(0.389436 0.0709838 -1.1278e-21)
(0.391284 0.0702946 3.68322e-22)
(0.396625 0.0702493 -6.85697e-22)
(0.398634 0.0694402 0)
(0.403928 0.069593 3.12367e-22)
(0.406064 0.068423 -3.10538e-22)
(0.410447 0.0682565 0)
(0.412976 0.0670069 -5.45751e-22)
(0.417573 0.067207 -3.81121e-22)
(0.420533 0.0659977 3.6337e-22)
(0.424291 0.0653535 0)
(0.428283 0.0648941 6.46843e-23)
(0.431407 0.0638801 -4.41223e-22)
(0.435882 0.0630494 -3.59421e-22)
(0.438133 0.0621356 -6.38484e-22)
(0.443385 0.0614235 -2.99449e-22)
(0.444648 0.0601269 0)
(0.449022 0.0594894 0)
(0.449329 0.0582783 1.18434e-22)
(0.452481 0.0574571 -1.05334e-22)
(0.453112 0.0553356 -6.61884e-22)
(0.457105 0.0535641 -8.62527e-22)
(0.465046 0.0294952 -3.2815e-23)
(0.465932 0.0266756 -9.76281e-23)
(-0.050152 -0.271497 0)
(-0.0722953 -0.260672 -8.38084e-22)
(0.46803 0.0239488 0)
(0.468325 0.0217551 1.32002e-23)
(0.469696 0.0196815 7.41987e-24)
(0.471396 0.0179065 -1.91852e-22)
(0.473441 0.0157618 -2.51171e-23)
(0.472086 0.0138857 1.73756e-23)
(-0.0999502 -0.229759 1.14181e-22)
(-0.106987 -0.216017 9.73781e-22)
(0.458594 -0.0759264 -5.02488e-23)
(0.462773 0.0321401 7.24778e-23)
(-0.120797 -0.195572 0)
(0.459596 0.0479469 2.39469e-23)
(0.460574 0.0444435 -3.64354e-23)
(0.461717 0.0403105 5.79484e-23)
(0.460585 0.0378885 1.38534e-22)
(0.461584 0.0335971 -3.53028e-23)
(0.456794 -0.0816765 -1.01985e-22)
(0.454155 -0.0859916 0)
(0.452435 -0.0880824 6.51836e-23)
(0.447084 -0.0896636 -1.49469e-22)
(0.445184 -0.0911777 -8.30005e-24)
(0.440307 -0.0927596 2.04077e-23)
(0.437268 -0.0943303 0)
(0.432887 -0.0953766 -9.15885e-23)
(0.429735 -0.0973273 -2.04501e-22)
(0.424789 -0.0978082 -6.29328e-24)
(0.421553 -0.0994463 0)
(0.417371 -0.100756 -1.30472e-22)
(0.412914 -0.101155 -2.66551e-22)
(0.409275 -0.102423 0)
(0.404653 -0.103691 -1.58223e-22)
(0.401285 -0.103995 1.57547e-22)
(0.395728 -0.104588 -8.76153e-23)
(0.392643 -0.10617 8.75735e-23)
(0.387289 -0.105902 1.85393e-22)
(0.384141 -0.107731 -1.0102e-22)
(0.37903 -0.107259 1.00607e-22)
(0.375476 -0.107696 8.61291e-22)
(0.371586 -0.108922 0)
(-0.129674 -0.175218 2.45895e-22)
(-0.139254 -0.154713 1.19786e-22)
(-0.151256 -0.1393 -3.76443e-22)
(0.482266 0.000466774 -3.65169e-25)
(0.480622 -0.0013766 -3.10537e-24)
(0.480734 0.00528458 0)
(-0.166401 -0.129954 3.17038e-23)
(0.458065 -0.0167138 0)
(0.474616 0.0111037 -4.25976e-23)
(0.481568 0.00438143 0)
(-0.187752 -0.117856 0)
(0.455225 -0.0419967 0)
(0.475725 0.00933976 -1.34017e-23)
(-0.206101 -0.110347 4.12456e-22)
(0.453634 -0.0485895 -1.65953e-22)
(0.455661 -0.0207045 -6.5325e-22)
(0.456018 -0.0321318 7.8649e-23)
(0.477087 0.00804597 4.8314e-23)
(-0.238277 -0.0965816 -2.80957e-22)
(0.451047 -0.0523384 0)
(0.454778 -0.0224931 -1.7122e-22)
(0.454122 -0.0346128 -3.26926e-22)
(0.478602 0.0062805 -3.01188e-23)
(0.457744 -0.0702086 1.12704e-22)
(-0.258457 -0.0908012 0)
(0.456476 -0.0668539 0)
(0.454391 -0.064149 -5.16869e-22)
(0.452747 -0.061399 -1.22522e-22)
(0.451322 -0.058982 -3.07356e-22)
(0.449848 -0.05607 -1.54975e-22)
(0.454683 -0.0295253 8.53107e-23)
(0.453854 -0.0276402 -4.93103e-22)
(0.452888 -0.0253439 -5.17779e-22)
(0.454023 -0.0399344 0)
(0.453109 -0.0378254 -4.89339e-22)
(0.479664 0.00619765 0)
(0.456959 -0.0735067 9.42866e-23)
(-0.03608 -0.261853 -7.73557e-22)
(-0.275403 -0.0741419 6.99269e-23)
(-0.328611 0.00288389 0)
(0.457548 0.0493328 -1.46983e-22)
(0.28289 -0.0191755 3.27036e-21)
(0.28448 -0.0157386 0)
(0.286661 -0.0105968 0)
(0.285228 -0.0337062 1.95637e-22)
(0.288888 -0.0273951 -4.21363e-22)
(0.28656 -0.0251593 2.55938e-23)
(-0.325274 0.00920413 -8.46249e-22)
(-0.318156 -0.0261087 6.28194e-22)
(0.292308 -0.00422076 0)
(0.467013 -0.00859287 1.51028e-23)
(0.290681 -0.0362004 1.89671e-22)
(-0.319419 0.0211532 -1.34782e-21)
(-0.312206 -0.0319265 6.61804e-22)
(0.296845 0.000189144 3.62258e-22)
(0.471443 -0.00701128 6.32091e-23)
(0.4698 -0.00771983 0)
(0.467808 -0.00765175 -8.40764e-24)
(0.295007 -0.0416512 1.16222e-22)
(-0.314169 0.033273 -9.37849e-22)
(-0.306789 -0.043787 -1.24464e-21)
(0.299963 0.00496279 -2.11578e-21)
(0.300059 -0.0454361 6.37122e-24)
(-0.30975 0.0469459 1.21261e-21)
(-0.2862 -0.0637479 -2.33809e-21)
(-0.297915 -0.0544816 1.21872e-21)
(0.304002 0.00880672 -6.97765e-22)
(0.304706 -0.0502857 6.7331e-24)
(-0.304875 0.061156 1.60288e-22)
(0.308889 0.0121899 1.69439e-22)
(0.473153 -0.0038468 -9.50251e-23)
(0.47232 -0.00544868 0)
(0.307635 -0.0535341 -4.54761e-23)
(-0.295782 0.0780163 0)
(0.314588 0.0159244 0)
(0.311532 -0.0572142 2.15483e-23)
(-0.286358 0.0924083 5.59244e-22)
(0.318706 0.0194932 1.30315e-21)
(0.316886 -0.0608625 3.12285e-22)
(-0.275813 0.11328 -2.4532e-22)
(0.323352 0.0239201 -2.56946e-21)
(0.321695 -0.0654662 -1.65216e-22)
(-0.261994 0.131901 1.80666e-21)
(0.328139 0.0271185 1.24736e-21)
(0.326296 -0.0695359 1.58561e-22)
(-0.240456 0.150027 -1.01199e-21)
(0.331117 0.0315746 6.18651e-22)
(0.32975 -0.0733118 3.04135e-22)
(-0.224828 0.164337 9.46655e-22)
(0.336565 0.0349023 5.79069e-22)
(0.33297 -0.0772341 4.44441e-22)
(-0.206229 0.179719 0)
(0.340992 0.0391192 -1.74658e-21)
(0.338566 -0.0812509 0)
(-0.187722 0.191148 -5.97509e-23)
(0.343455 0.0429438 0)
(0.344807 -0.086282 -1.40551e-22)
(-0.169602 0.201271 1.35546e-21)
(0.349439 0.0468688 -1.69647e-21)
(0.345879 -0.0902258 9.94373e-23)
(-0.154891 0.210323 -7.99313e-22)
(0.351087 0.050199 4.91678e-24)
(-0.325164 -0.0180134 -8.31738e-23)
(0.351468 -0.0935123 -2.60937e-22)
(-0.137527 0.219299 0)
(-0.116874 0.225589 2.07232e-22)
(-0.0929009 0.230627 -4.55987e-23)
(0.355174 0.0539272 0)
(0.367061 -0.10417 1.0672e-21)
(0.362247 -0.10011 7.39902e-22)
(0.355755 -0.0956009 5.1079e-22)
(0.360608 0.0566149 1.06675e-21)
(-0.0677333 0.235428 -1.46925e-23)
(-0.0601121 0.2333 -1.78427e-23)
(-0.0503495 0.229953 -1.59055e-22)
(-0.0393572 0.225071 -2.7557e-22)
(-0.0282556 0.219363 -1.22332e-22)
(-0.0184972 0.212564 -5.60413e-23)
(-0.00882096 0.205927 -9.99374e-23)
(-3.83729e-05 0.199181 1.44882e-22)
(0.00852575 0.192566 -3.96982e-23)
(0.0167031 0.186215 8.27919e-23)
(0.0251339 0.180198 2.05588e-24)
(0.0335878 0.174372 6.69908e-23)
(0.0423849 0.168299 -1.16146e-22)
(0.051106 0.162609 -4.94838e-23)
(0.0597789 0.156958 8.68973e-23)
(0.0676232 0.150963 3.81702e-23)
(0.0754967 0.145511 9.83571e-23)
(0.082624 0.139944 -1.50786e-22)
(0.0892544 0.134535 5.5676e-23)
(0.0953404 0.129407 -2.24185e-23)
(0.10085 0.124658 4.66085e-24)
(0.10596 0.120226 -1.7153e-23)
(0.110633 0.116156 0)
(0.115057 0.112274 0)
(0.119181 0.108618 0)
(0.122681 0.104862 9.88359e-24)
(0.12606 0.101361 7.02823e-24)
(0.128896 0.0978717 -3.9476e-23)
(0.131765 0.094427 -1.32919e-23)
(0.134421 0.0911645 1.02805e-23)
(0.137076 0.0877414 -2.83251e-24)
(0.139943 0.0846004 2.15026e-24)
(0.142969 0.0813833 6.43774e-25)
(0.146383 0.078286 -3.02044e-24)
(0.150012 0.0751701 3.03472e-24)
(0.153777 0.0722681 4.48598e-24)
(0.157484 0.0694584 8.77516e-24)
(0.161062 0.0669746 -2.43182e-24)
(0.164341 0.0645627 3.78693e-24)
(0.167437 0.062458 -1.33877e-24)
(0.170239 0.0603352 -1.12899e-23)
(0.172858 0.0584014 -2.9507e-24)
(0.175222 0.0564193 6.39707e-24)
(0.177483 0.0545426 -6.82868e-24)
(0.179581 0.0526737 0)
(0.181612 0.050865 0)
(0.183601 0.0491336 -3.51812e-23)
(0.185592 0.0474957 1.6031e-23)
(0.187526 0.0458753 2.43691e-23)
(0.18946 0.0442784 1.77231e-25)
(0.191335 0.0426862 -2.46677e-23)
(0.193171 0.0411339 -1.65118e-23)
(0.194904 0.0396703 -1.66626e-23)
(0.196562 0.0382954 6.61408e-23)
(0.198139 0.0370165 -3.32708e-23)
(0.199661 0.0357884 0)
(0.201129 0.0345885 0)
(0.202564 0.0334428 8.01939e-24)
(0.203939 0.0322749 1.58167e-23)
(0.202736 0.0307383 0)
(0.201632 0.0293078 -2.24908e-24)
(0.200535 0.027708 -4.70964e-24)
(0.199526 0.0262399 2.02635e-23)
(0.198545 0.0246284 -3.06551e-23)
(0.197599 0.0231482 -4.36605e-23)
(0.196566 0.0214968 4.40823e-23)
(0.195784 0.0199607 0)
(0.195071 0.0182723 -4.78143e-23)
(0.19449 0.0166347 2.30258e-23)
(0.193736 0.0149391 7.2721e-23)
(0.193267 0.0131844 4.93193e-25)
(0.192723 0.0115113 -2.44448e-23)
(0.192335 0.00957324 -3.50374e-24)
(0.191846 0.00793631 3.85178e-23)
(0.191488 0.00582036 -6.64482e-23)
(0.191253 0.00426089 2.58293e-23)
(0.190713 0.00195768 -3.19571e-24)