/*--------------------------------*- C++ -*----------------------------------*\
| =========                 |                                                 |
| \\      /  F ield         | OpenFOAM: The Open Source CFD Toolbox           |
|  \\    /   O peration     | Version:  v1612+                                |
|   \\  /    A nd           | Web:      www.OpenFOAM.com                      |
|    \\/     M anipulation  |                                                 |
\*---------------------------------------------------------------------------*/
FoamFile
{
    version     2.0;
    format      ascii;
    class       volScalarField;
    location    "1";
    object      p;
}
// * * * * * * * * * * * * * * * * * * * * * * * * * * * * * * * * * * * * * //

dimensions      [0 2 -2 0 0 0 0];

internalField   nonuniform List<scalar> 
113025
(
-0.0078903
-0.00732365
-0.0155739
-0.1892
-0.0143856
-0.0132259
-0.0121374
-0.0111083
-0.0101231
-0.00691338
-0.00642174
-0.00595798
-0.00821832
-0.00756973
-0.00783296
-0.0162136
-0.265656
-0.184069
-0.154733
-0.0137749
-0.00699611
-0.0130226
-0.00744323
-0.00726002
-0.00701808
0.0627388
0.0626536
0.0621277
0.0607365
0.0609822
0.0610421
-0.157429
-0.15814
0.0602929
0.05872
-0.160132
-0.161276
0.058371
0.0566749
-0.162975
-0.164774
0.0563875
-0.00742131
0.05459
-0.166086
-0.168481
0.0544066
-0.00743802
0.0524712
-0.169494
-0.172347
0.0524008
0.0503239
-0.173175
-0.179826
-0.176013
0.0503871
0.0480964
-0.177333
0.0483006
-0.00750011
-0.00759484
-0.00758301
-0.00752702
-0.00744045
0.0457321
-0.182023
0.0461977
0.0432472
-0.187094
0.0440877
0.0407691
-0.192597
0.041937
0.0382859
-0.198597
0.0397074
0.0358134
-0.204745
0.0374088
0.0332215
-0.210885
0.0351718
0.0306313
-0.217088
0.0329687
0.0281354
-0.223799
0.0307424
0.0256322
-0.230978
0.0284682
0.0229597
-0.238557
0.0261503
-0.155287
-0.154975
0.0198254
-0.246499
-0.254762
-0.262934
0.0237861
0.00985716
0.0131514
0.0164798
-0.252064
-0.249305
0.0213524
-0.270752
-0.273724
-0.276637
-0.279489
-0.282557
-0.285928
-0.289764
-0.294191
-0.299421
-0.305586
-0.312836
-0.32126
-0.330848
-0.341516
-0.352855
-0.36434
-0.375473
-0.385386
-0.392107
-0.394946
-0.39259
-0.384581
-0.371034
-0.353218
-0.332519
-0.309171
-0.287164
-0.265559
-0.245842
-0.22797
-0.211796
-0.197175
-0.183996
-0.172027
-0.161106
-0.15113
-0.141811
-0.133248
-0.125303
-0.117727
-0.110706
-0.104064
-0.0978084
-0.0916493
-0.085883
-0.0804655
-0.0752926
-0.0704248
-0.0657792
-0.0612404
-0.0568743
-0.052735
-0.0489091
-0.0454126
-0.0421596
-0.039067
-0.0362209
-0.0336216
-0.0312845
-0.0292088
-0.0272904
-0.0257229
-0.0241435
-0.0225819
-0.0211102
-0.0197648
-0.01849
-0.0173202
-0.0161909
-0.0151212
-0.0141273
-0.0132337
-0.0124379
-0.0117777
-0.0112555
-0.0109068
-0.0106528
-0.0105113
-0.0106334
-0.0111199
-0.0118603
-0.0127148
-0.0136548
-0.0147373
-0.0159917
-0.0173567
-0.0188501
-0.0205047
-0.0223083
-0.0241908
-0.0261833
-0.0282718
-0.0304728
-0.0327774
-0.0351446
-0.0374893
-0.0398394
-0.0421806
-0.0445296
-0.0469305
-0.0493605
-0.0516657
-0.0538347
-0.0558817
-0.0578318
-0.0598143
-0.0618237
-0.0639296
-0.0660885
-0.0682206
-0.0702629
-0.0746831
-0.0792975
-0.0840518
-0.0889085
-0.0940407
-0.0993699
-0.1048
-0.11036
-0.116145
-0.12214
-0.128226
-0.134576
-0.141105
-0.147751
-0.154424
-0.161258
-0.168018
-0.174919
-0.181882
-0.188939
-0.196086
-0.203249
-0.210451
-0.217732
-0.225041
-0.232251
-0.239329
-0.24634
-0.253144
-0.259335
-0.264751
-0.269264
-0.272825
-0.275308
-0.276785
-0.277259
-0.276709
-0.27564
-0.274141
-0.272389
-0.270661
-0.269012
-0.267667
-0.266664
-0.265953
-0.265264
-0.26517
-0.26421
-0.264421
-0.264406
-0.26449
-0.264724
-0.265096
-0.265324
-0.265213
-0.2654
-0.256507
0.0187828
-0.0069868
-0.00669122
-0.00634343
-0.00593417
-0.260213
0.0160137
-0.00929754
0.0130861
0.0101729
0.00857078
0.00703626
0.00556116
0.00406019
0.00256127
0.00107465
-0.000353087
-0.00171783
-0.00303376
-0.00431917
-0.00557359
-0.00677767
-0.00790324
-0.00894457
-0.00994451
-0.010871
-0.0117186
-0.0124767
-0.0130315
-0.0132944
-0.0133433
-0.0134122
-0.0139755
-0.00953822
-0.00908388
-0.264936
-0.263175
-0.00889544
-0.00873498
-0.0085949
-0.00845353
-0.00831608
-0.00807393
-0.00799669
-0.243598
-0.0169137
-0.237418
-0.0177197
-0.00980285
-0.230859
-0.0122898
-0.0115382
-0.0109083
-0.0101479
-0.0185189
-0.0194362
-0.0186799
-0.0178456
-0.0169713
-0.0160079
-0.0149542
-0.013834
-0.0126373
-0.0113926
-0.0100906
-0.00875909
-0.00740395
-0.0059914
-0.00450997
-0.00294962
-0.00136525
0.000252342
0.0018705
0.0034892
0.00503301
0.00657098
0.00813554
-0.22397
-0.217137
-0.00770438
-0.210496
-0.00723748
-0.00728346
-0.00733896
-0.00742462
-0.00752768
-0.204299
-0.00841711
-0.00579755
-0.00789967
-0.00739302
-0.198175
-0.00864979
-0.00890097
-0.00565558
-0.00693399
-0.00781077
-0.00736514
-0.192875
-0.00919478
-0.00553219
-0.00697487
-0.00778831
-0.0149397
-0.187689
-0.0137275
-0.0125879
-0.0115145
-0.0104752
-0.0095089
-0.0064079
-0.00590783
-0.00544304
-0.00771083
-0.00704981
-0.00772027
-0.015555
-0.26488
-0.183127
-0.157262
-0.012715
-0.00786953
-0.264737
-0.00735405
-0.00529696
-0.007371
-0.00809082
-0.00733219
-0.00677905
0.0611056
0.0610121
0.0604305
0.0590583
0.0593215
0.0594312
-0.159924
-0.160729
0.0585532
0.0570449
-0.162752
-0.164132
0.0566318
-0.00725497
-0.00704775
-0.00681959
0.0549805
-0.165698
-0.16785
0.0546398
-0.0072685
0.0529021
-0.168883
-0.171635
0.0526638
0.0508072
-0.172442
-0.179001
-0.175415
0.050669
0.0486818
-0.176313
0.0486584
-0.00751802
-0.00748618
-0.00741909
-0.00731142
-0.00731061
0.0464377
-0.180673
0.0465678
0.0440024
-0.185542
0.044494
0.0415389
-0.190765
0.0424078
0.0391297
-0.196389
0.0402543
0.0366862
-0.202315
0.038018
0.0342014
-0.208199
0.0357448
0.0316139
-0.214147
0.0335569
0.0290611
-0.220415
0.0313883
0.0266024
-0.227216
0.0291597
0.0240752
-0.234466
0.0268957
-0.157694
0.0211617
-0.242099
-0.250174
-0.25832
0.0245777
0.0113173
0.0145557
0.017864
0.0222131
-0.266252
-0.269535
-0.272733
-0.275932
-0.27932
-0.28299
-0.287056
-0.291746
-0.297294
-0.303753
-0.311278
-0.320056
-0.330156
-0.341328
-0.35323
-0.365426
-0.37729
-0.387693
-0.395801
-0.399781
-0.398407
-0.39087
-0.377341
-0.359241
-0.337523
-0.313739
-0.289983
-0.26693
-0.245637
-0.226352
-0.209191
-0.193969
-0.18032
-0.16809
-0.157033
-0.146992
-0.13777
-0.129275
-0.121429
-0.114059
-0.107177
-0.100682
-0.094477
-0.0885022
-0.0828803
-0.077435
-0.0723204
-0.0675186
-0.0629447
-0.0584811
-0.0541973
-0.0501102
-0.0464064
-0.0429776
-0.0398518
-0.03687
-0.034166
-0.0317145
-0.0295449
-0.0275499
-0.0259213
-0.0242925
-0.0227197
-0.0212791
-0.0199587
-0.0187138
-0.0175542
-0.0164702
-0.0154681
-0.0145728
-0.0137767
-0.0131307
-0.0126254
-0.0122519
-0.0120552
-0.0120808
-0.0122702
-0.0126544
-0.0132736
-0.0140798
-0.0151087
-0.0164116
-0.0177573
-0.0191883
-0.0207385
-0.0224721
-0.0243418
-0.0263887
-0.028555
-0.0308035
-0.0331467
-0.0355365
-0.037966
-0.0403807
-0.0428218
-0.045335
-0.0479214
-0.0505277
-0.0530225
-0.0553627
-0.0575038
-0.0595726
-0.0616384
-0.0636705
-0.0657535
-0.0679812
-0.0702359
-0.0725135
-0.0769614
-0.0816034
-0.0863967
-0.091414
-0.0967097
-0.102041
-0.107517
-0.11316
-0.11917
-0.125364
-0.131675
-0.138331
-0.144961
-0.151857
-0.158847
-0.165943
-0.173163
-0.180522
-0.188033
-0.195649
-0.203396
-0.211284
-0.219358
-0.227606
-0.23572
-0.243744
-0.251613
-0.259219
-0.266039
-0.271927
-0.276754
-0.280379
-0.282764
-0.283808
-0.283742
-0.282551
-0.28064
-0.278318
-0.275854
-0.273421
-0.2712
-0.269384
-0.267977
-0.266884
-0.265893
-0.265711
-0.26458
-0.264653
-0.264655
-0.264545
-0.264677
-0.264841
-0.265096
-0.264965
-0.253998
-0.251485
0.0197491
-0.00672661
-0.00640994
-0.00606664
-0.00564269
-0.258082
0.0171028
0.0142708
0.0114009
0.00979826
0.00825714
0.00678187
0.00530337
0.0037952
0.00232212
0.000912767
-0.000444594
-0.00174736
-0.00303609
-0.00427202
-0.00546909
-0.00658204
-0.00765341
-0.00867473
-0.00966391
-0.01058
-0.0114112
-0.0120094
-0.0122942
-0.0122479
-0.0121353
-0.0122971
-0.0125299
-0.0089593
-0.00877812
-0.263426
-0.261033
-0.00862273
-0.00848744
-0.00837757
-0.00827123
-0.00816517
-0.00791529
-0.2461
-0.240364
-0.016285
-0.00917075
-0.233956
-0.0120347
-0.0113097
-0.0106432
-0.00980164
-0.00942965
-0.0170159
-0.0177801
-0.0169856
-0.0161715
-0.0152628
-0.0143011
-0.01325
-0.0121605
-0.0109901
-0.00977628
-0.00848562
-0.00717453
-0.00582853
-0.0044433
-0.00297534
-0.00144289
0.000149673
0.00175539
0.00335529
0.00494399
0.00649237
0.00801315
0.00960312
-0.227497
-0.220745
-0.214285
-0.0074079
-0.00746891
-0.00756868
-0.208067
-0.00546735
-0.00780666
-0.00742537
-0.202014
-0.00789573
-0.0077306
-0.196489
-0.00831598
-0.00513144
-0.00640933
-0.00771073
-0.191319
-0.00858303
-0.00500487
-0.00644458
-0.00769923
-0.0142835
-0.18654
-0.013077
-0.0119455
-0.0108544
-0.00981963
-0.00883406
-0.00588376
-0.0053775
-0.00490635
-0.00717291
-0.0064921
-0.00759349
-0.0149009
-0.263374
-0.182106
-0.159865
-0.0117349
0.0595241
0.0593235
0.058874
0.0573813
0.057651
0.0578245
-0.162518
-0.163485
0.0568431
-0.00655666
0.0553535
-0.165461
-0.167101
0.05486
-0.00709402
-0.00686329
-0.00664375
0.053292
-0.168524
-0.170964
0.0528748
0.0512342
-0.171805
-0.1784
-0.174705
0.0509127
0.0491612
-0.175516
0.0489359
-0.0071852
-0.00715077
0.0470239
-0.179605
0.046924
0.0447013
-0.184116
0.0448556
0.0422634
-0.189135
0.0428154
0.0398901
-0.194533
0.0407287
0.0375219
-0.200146
0.038547
0.0350915
-0.205783
0.0363125
0.0326193
-0.21148
0.0340956
0.0300241
-0.217379
0.0319732
0.0275042
-0.223733
0.0298027
0.0250647
-0.230595
0.0275876
-0.160165
0.0223838
-0.237934
-0.245726
-0.253845
0.02533
0.0127033
0.0159061
0.0192241
0.0230106
-0.261851
-0.265382
-0.268791
-0.272192
-0.275796
-0.279671
-0.283977
-0.288844
-0.294484
-0.300994
-0.308594
-0.317569
-0.327876
-0.339231
-0.351353
-0.363877
-0.375966
-0.386862
-0.395313
-0.39989
-0.399333
-0.39244
-0.379387
-0.361216
-0.339224
-0.315056
-0.290004
-0.26606
-0.243775
-0.223659
-0.20594
-0.190295
-0.176402
-0.163969
-0.152835
-0.14264
-0.133444
-0.125065
-0.117328
-0.110191
-0.103456
-0.0971604
-0.0910848
-0.0853535
-0.0798036
-0.0744937
-0.0694382
-0.0646933
-0.060186
-0.0557952
-0.0515833
-0.04759
-0.0439553
-0.0405878
-0.037506
-0.0347163
-0.0322179
-0.0298737
-0.0278304
-0.0261371
-0.0244583
-0.0228915
-0.021516
-0.020253
-0.0190602
-0.0179343
-0.016901
-0.0160011
-0.0152267
-0.0145832
-0.014083
-0.0137496
-0.013634
-0.0136563
-0.0138005
-0.0141248
-0.0147822
-0.0157393
-0.0169791
-0.0182773
-0.0195733
-0.0210272
-0.0226963
-0.024539
-0.0265594
-0.0287345
-0.0310697
-0.0334645
-0.0359406
-0.0384436
-0.0408721
-0.0433818
-0.0459473
-0.0486466
-0.0514322
-0.0541701
-0.056715
-0.0590818
-0.0612904
-0.0634231
-0.0655575
-0.0676834
-0.0699116
-0.07225
-0.0746161
-0.0791424
-0.0838013
-0.0887215
-0.0938479
-0.0991351
-0.104514
-0.11018
-0.116222
-0.122347
-0.128755
-0.135329
-0.142119
-0.149099
-0.156231
-0.163549
-0.171123
-0.178873
-0.186855
-0.195017
-0.203411
-0.212052
-0.220924
-0.230119
-0.239439
-0.248498
-0.257476
-0.265833
-0.273423
-0.279744
-0.284969
-0.288653
-0.290806
-0.29149
-0.290626
-0.288625
-0.285759
-0.282461
-0.279149
-0.276059
-0.273074
-0.270678
-0.268787
-0.267312
-0.265959
-0.265869
-0.264395
-0.264249
-0.264394
-0.263966
-0.264192
-0.264271
-0.264243
-0.264388
-0.263934
0.0206411
-0.00647898
-0.00617228
-0.00579498
-0.00539035
-0.2558
-0.253516
0.0181044
0.0154056
0.0125988
0.0109901
0.00946063
0.00797708
0.00649697
0.00500101
0.00352854
0.00213015
0.000779974
-0.000540351
-0.00180702
-0.00303542
-0.00419666
-0.00533363
-0.0064
-0.00745628
-0.00848634
-0.00948836
-0.0103338
-0.0109667
-0.0112915
-0.0113253
-0.0111073
-0.010962
-0.0112679
-0.00843003
-0.261469
-0.259258
-0.00830477
-0.00820083
-0.00812047
-0.00805373
-0.00798038
-0.00772142
-0.00770536
-0.248505
-0.243085
-0.00857343
-0.236923
-0.0110335
-0.010348
-0.00943669
-0.00903009
-0.00874261
-0.0155616
-0.0162467
-0.0154227
-0.0145667
-0.0136405
-0.0126655
-0.0116244
-0.0105447
-0.00940644
-0.00820872
-0.00694326
-0.00564804
-0.00431986
-0.00296096
-0.00152378
7.64205e-06
0.00158285
0.00317288
0.00477734
0.00636707
0.00788756
0.00938343
0.0109654
-0.230752
-0.224228
-0.217903
-0.00737563
-0.00737023
-0.00743772
-0.00747027
-0.00743233
-0.00735797
-0.00725084
-0.211689
-0.00518204
-0.00496477
-0.00769471
-0.00744874
-0.205815
-0.00732975
-0.00763553
-0.200115
-0.00750386
-0.00477006
-0.00761155
-0.194859
-0.00769921
-0.00460519
-0.00587623
-0.0076429
-0.190007
-0.00791207
-0.00446059
-0.00586267
-0.00759233
-0.0135947
-0.185442
-0.0123687
-0.0112215
-0.0101287
-0.00909601
-0.00810903
-0.00533267
-0.00482253
-0.00434292
-0.0065972
-0.00591437
-0.00747428
-0.0141829
-0.010646
-0.262119
-0.181402
-0.162513
-0.262962
-0.00672319
0.0579892
0.0575611
0.0572299
0.055697
0.0559627
0.0561572
-0.165165
-0.166414
0.0550614
-0.00636006
0.0536633
-0.168297
-0.17019
0.0530836
0.0516063
-0.171426
-0.177683
-0.174014
0.0511232
0.0495779
-0.174853
0.0491814
-0.00702187
-0.00694906
-0.00672451
-0.00647244
0.0475105
-0.178735
0.0472013
0.0453448
-0.183
0.0451976
0.0429746
-0.187645
0.0431676
0.040599
-0.192768
0.0411471
0.0382913
-0.19819
0.0390456
0.0359363
-0.203638
0.0368588
0.0335249
-0.209084
0.0346616
0.0310424
-0.214706
0.0325022
0.028443
-0.220663
0.0303966
0.0259404
-0.227073
0.0282205
-0.162945
-0.163116
0.0234839
-0.234046
-0.241503
-0.249498
0.026024
0.0140304
0.017228
0.0205392
0.0237635
-0.257527
-0.261196
-0.264827
-0.268451
-0.27216
-0.276136
-0.280458
-0.285336
-0.290923
-0.297467
-0.304994
-0.31373
-0.323844
-0.335036
-0.346991
-0.359312
-0.371277
-0.382045
-0.390535
-0.39522
-0.395157
-0.388984
-0.376761
-0.359019
-0.337258
-0.313003
-0.287854
-0.263426
-0.240655
-0.220191
-0.202024
-0.186061
-0.172054
-0.15944
-0.148262
-0.138148
-0.12895
-0.120755
-0.11325
-0.106212
-0.0997025
-0.0935893
-0.0877639
-0.0821315
-0.0767042
-0.0715392
-0.0665426
-0.0618811
-0.0574065
-0.0531388
-0.0490218
-0.0451725
-0.0415766
-0.0383007
-0.0353192
-0.032664
-0.0302725
-0.0281216
-0.0263616
-0.0247186
-0.023218
-0.0218978
-0.0206823
-0.0195549
-0.0185044
-0.0175961
-0.0167987
-0.0161575
-0.0156706
-0.0153426
-0.0151993
-0.015213
-0.0154805
-0.0160618
-0.0168903
-0.017846
-0.018914
-0.020103
-0.0215726
-0.0231758
-0.0249125
-0.0268105
-0.0289281
-0.0312276
-0.0336928
-0.0362084
-0.0388106
-0.0413741
-0.0439098
-0.0464904
-0.0492216
-0.0520999
-0.0550107
-0.0578056
-0.0603706
-0.062777
-0.0651338
-0.0674425
-0.0696674
-0.0719377
-0.0742843
-0.0766765
-0.0812618
-0.0859875
-0.0910467
-0.0962061
-0.101552
-0.107181
-0.113253
-0.119322
-0.125638
-0.132235
-0.139061
-0.146187
-0.153533
-0.161164
-0.169045
-0.177195
-0.185618
-0.194314
-0.203462
-0.212938
-0.222699
-0.232836
-0.243181
-0.253558
-0.263612
-0.273057
-0.281625
-0.288612
-0.294234
-0.29809
-0.29998
-0.300142
-0.298479
-0.295355
-0.291348
-0.286857
-0.282538
-0.278481
-0.27483
-0.271871
-0.269546
-0.26763
-0.265914
-0.265816
-0.26423
-0.26369
-0.264165
-0.263361
-0.263399
-0.263692
-0.263189
-0.263047
0.0214434
-0.00626558
-0.00593988
-0.00556239
-0.00514954
0.0190523
0.0164708
0.0137395
0.0121332
0.0106055
0.00910594
0.00762651
0.0061289
0.0046695
0.00324617
0.0018999
0.000587753
-0.000653093
-0.00186081
-0.00302163
-0.00414024
-0.00522778
-0.00630068
-0.00738464
-0.00839696
-0.00927781
-0.00989361
-0.0102098
-0.010336
-0.0103172
-0.0100927
-0.260028
-0.257242
-0.255376
-0.00795112
-0.00788075
-0.00782845
-0.00779406
-0.00776438
-0.00750461
-0.00750542
-0.250931
-0.245785
-0.00803327
-0.239805
-0.0100204
-0.00900591
-0.00858969
-0.00827878
-0.00813025
-0.0148172
-0.0139528
-0.013064
-0.0121075
-0.0111337
-0.0100839
-0.0090166
-0.00787878
-0.00672252
-0.00545791
-0.00418828
-0.00287903
-0.00152573
-0.000101797
0.00138405
0.00294384
0.00452947
0.00613889
0.00772366
0.00920526
0.0106992
0.0122844
-0.233813
-0.227528
-0.221406
-0.00739838
-0.00739183
-0.00743148
-0.00739647
-0.00733381
-0.00724205
-0.0071123
-0.21515
-0.00489864
-0.0046487
-0.00753051
-0.209411
-0.00753321
-0.203735
-0.00443301
-0.00750217
-0.198412
-0.00686462
-0.00423327
-0.007551
-0.193435
-0.00701867
-0.00404817
-0.00528339
-0.00756863
-0.188894
-0.00715046
-0.00389307
-0.00526727
-0.00747107
-0.0128882
-0.184528
-0.0116636
-0.0104849
-0.0093681
-0.00831061
-0.00729893
-0.00474541
-0.00422996
-0.00374094
-0.00740742
-0.00739817
-0.0134363
-0.00959293
-0.180719
-0.16527
-0.00598226
-0.00527717
-0.00963969
-0.0041319
-0.00606945
-0.00530851
-0.00389255
-0.00683486
-0.00733577
-0.00660203
-0.00634612
0.0565273
0.0560762
0.0540048
0.0542765
0.0544648
-0.168017
-0.169633
0.0532053
0.051959
-0.171217
-0.177044
-0.173328
0.0512717
0.0499429
-0.174423
0.0493607
-0.00620326
0.0479416
-0.178025
0.0474286
0.0458627
-0.182043
0.0454666
0.0436343
-0.186417
0.0434899
0.0412821
-0.191208
0.0414871
0.0389901
-0.196378
0.0394694
0.0367154
-0.201701
0.0373436
0.0343627
-0.206938
0.0351645
0.0319653
-0.212312
0.0330226
0.0294546
-0.217987
0.0309282
0.0268727
-0.223998
0.028836
-0.166101
-0.166556
0.0243877
-0.230486
-0.237599
-0.245295
0.0266654
0.0152886
0.0185798
0.021786
0.0244741
-0.253314
-0.257075
-0.260852
-0.264587
-0.268396
-0.272405
-0.276741
-0.281537
-0.286907
-0.293126
-0.300423
-0.308748
-0.318307
-0.328952
-0.340362
-0.352177
-0.363553
-0.373681
-0.381394
-0.38604
-0.386231
-0.380873
-0.369654
-0.352969
-0.332104
-0.308499
-0.283978
-0.259367
-0.236551
-0.215735
-0.197325
-0.181278
-0.167071
-0.154614
-0.143566
-0.13353
-0.124593
-0.116597
-0.109282
-0.102468
-0.0961181
-0.0902047
-0.084494
-0.0789722
-0.0736298
-0.0684583
-0.0636039
-0.0589557
-0.0545734
-0.050471
-0.0465044
-0.0427773
-0.0393158
-0.036136
-0.0332737
-0.0307217
-0.0284392
-0.0267146
-0.0251437
-0.0237333
-0.0224748
-0.0212843
-0.0202263
-0.0193023
-0.0185323
-0.0179003
-0.0174145
-0.01706
-0.0168718
-0.0169805
-0.0174019
-0.0180453
-0.0187861
-0.0197422
-0.0210192
-0.0224945
-0.0239347
-0.0254396
-0.0272367
-0.0292518
-0.0314326
-0.0338498
-0.0364358
-0.0390519
-0.0417073
-0.0443243
-0.047027
-0.0497835
-0.0526814
-0.0556961
-0.0586649
-0.0614346
-0.0640103
-0.0665061
-0.0690221
-0.0715062
-0.0739211
-0.0763593
-0.078785
-0.0833957
-0.0882156
-0.0933299
-0.0986505
-0.104229
-0.110131
-0.116232
-0.122503
-0.12909
-0.135877
-0.143074
-0.150586
-0.158416
-0.166644
-0.175177
-0.184146
-0.193562
-0.203462
-0.213862
-0.224674
-0.235757
-0.247158
-0.258797
-0.270143
-0.280923
-0.290581
-0.298635
-0.304717
-0.308835
-0.310628
-0.310052
-0.307375
-0.302854
-0.297486
-0.291512
-0.286048
-0.281117
-0.276551
-0.272906
-0.270161
-0.267668
-0.265704
-0.265307
-0.263863
-0.262838
-0.263703
-0.262892
-0.262575
-0.262974
-0.262415
-0.258524
-0.257024
0.0222131
-0.00608081
-0.00572606
-0.00536931
-0.00491843
0.019906
0.0174497
0.0148396
0.0132652
0.0117185
0.0101941
0.00868867
0.0072016
0.00572278
0.0042998
0.00292429
0.00163667
0.000404343
-0.000766326
-0.00193651
-0.00304248
-0.00413955
-0.00522239
-0.00632285
-0.00734843
-0.00825498
-0.00889506
-0.0092091
-0.00925711
-0.00752064
-0.00750219
-0.0074976
-0.00750217
-0.00724035
-0.00727442
-0.253406
-0.248617
-0.00755091
-0.242767
-0.0080343
-0.00776392
-0.00764875
-0.00759233
-0.236831
-0.230646
-0.224718
-0.00710892
-0.00694552
-0.218545
-0.00465904
-0.00439034
-0.212827
-0.00738889
-0.207253
-0.00738771
-0.201977
-0.00742856
-0.196878
-0.00616617
-0.00367884
-0.00751026
-0.192291
-0.165492
-0.00624215
-0.00347927
-0.00467409
-0.00746524
-0.187826
-0.00632573
-0.00328703
-0.00740369
-0.0073804
-0.00733605
-0.00737677
-0.00727144
-0.0120982
-0.0125714
-0.0116521
-0.0106601
-0.00968083
-0.00863383
-0.00759622
-0.00645388
-0.0053103
-0.00404193
-0.00279177
-0.00144573
-0.000129492
0.00128689
0.00270148
0.00421212
0.00576318
0.0073858
0.0089885
0.0105237
0.0120093
0.0135351
-0.183841
-0.00460988
-0.0108411
-0.00965121
-0.00852762
-0.00744728
-0.00643599
-0.00411162
-0.00358872
-0.00309667
-0.18012
-0.168054
-0.00459425
-0.00356702
-0.00535142
0.0523201
0.0526214
0.0528961
-0.171001
-0.176484
-0.172913
0.0512918
0.0502755
-0.174203
0.0494849
-0.00605149
0.0483011
-0.177511
0.0476069
0.0463083
-0.181276
0.0456872
0.0441887
-0.185393
0.0437441
0.0419459
-0.18988
0.0417982
0.0396656
-0.194765
0.0398105
0.0374292
-0.199911
0.0377775
0.0351657
-0.204999
0.0356586
0.0328162
-0.210156
0.0335328
0.0304027
-0.215571
0.0314395
0.0278534
-0.22131
0.0293684
-0.169561
-0.169664
0.0252721
-0.227379
-0.234017
-0.241359
0.0272798
0.016613
0.0199288
0.0227826
0.0251217
-0.249181
-0.253046
-0.256854
-0.260653
-0.264547
-0.268593
-0.272871
-0.277488
-0.282633
-0.288482
-0.295179
-0.302869
-0.311649
-0.321435
-0.331968
-0.342685
-0.353293
-0.36257
-0.369658
-0.373523
-0.373503
-0.368717
-0.358578
-0.343356
-0.323813
-0.301576
-0.277866
-0.25407
-0.231711
-0.210952
-0.192581
-0.176467
-0.162219
-0.149959
-0.138983
-0.12926
-0.120573
-0.112665
-0.105556
-0.0989498
-0.0927204
-0.0868442
-0.0812589
-0.075813
-0.0705249
-0.0654511
-0.0606376
-0.0560926
-0.0518042
-0.0477701
-0.0439952
-0.0404232
-0.0371301
-0.034097
-0.0313729
-0.0289079
-0.0272546
-0.0257819
-0.0244575
-0.0232692
-0.0221595
-0.0212098
-0.0204022
-0.0198001
-0.0193363
-0.0190125
-0.018906
-0.0190295
-0.0193786
-0.0199061
-0.0207016
-0.0218252
-0.023181
-0.0245465
-0.0259953
-0.0277959
-0.0297434
-0.0318354
-0.0341538
-0.036662
-0.0392509
-0.0419368
-0.0446162
-0.0474043
-0.0502438
-0.0532327
-0.0562831
-0.0593572
-0.0622672
-0.0650628
-0.0677205
-0.0703961
-0.0730786
-0.0757588
-0.0783793
-0.0809109
-0.0854795
-0.0905044
-0.0957149
-0.101213
-0.10696
-0.11292
-0.119254
-0.125758
-0.132613
-0.139802
-0.147426
-0.155398
-0.163801
-0.172766
-0.182252
-0.192388
-0.203206
-0.214577
-0.226517
-0.238771
-0.251481
-0.264441
-0.277179
-0.289422
-0.30044
-0.309675
-0.316639
-0.321037
-0.322778
-0.321464
-0.317479
-0.31183
-0.304476
-0.296765
-0.289798
-0.283722
-0.278207
-0.273749
-0.270654
-0.267598
-0.265444
-0.264514
-0.263181
-0.26191
-0.262494
-0.262113
-0.261388
-0.261719
-0.261313
-0.259507
0.0229328
-0.00589696
-0.00555798
-0.00517721
-0.00474186
0.0206889
0.0183573
0.0158633
0.0142927
0.0127401
0.0112214
0.00969667
0.00819747
0.00671866
0.00529107
0.00391249
0.00262711
0.00140712
0.000226509
-0.000911386
-0.00201865
-0.00309632
-0.00419064
-0.00526032
-0.00631432
-0.00722374
-0.00791839
-0.00825647
-0.0083571
-0.00914751
-0.00841812
-0.00714216
-0.00716758
-0.00720543
-0.00694891
-0.00700939
-0.00708807
-0.255814
-0.25139
-0.00712781
-0.245851
-0.0073175
-0.00717901
-0.00713297
-0.00713068
-0.239912
-0.233812
-0.227842
-0.00692658
-0.00675354
-0.00653034
-0.00626414
-0.221899
-0.00445942
-0.00414673
-0.00382848
-0.21612
-0.00720602
-0.210686
-0.00725522
-0.205446
-0.00728518
-0.200368
-0.00332457
-0.00741059
-0.195611
-0.0053823
-0.0030938
-0.00743437
-0.00732893
-0.191173
-0.00540733
-0.00285961
-0.0071494
-0.011236
-0.0102849
-0.00930045
-0.00830054
-0.00726273
-0.00621431
-0.00509221
-0.00393693
-0.0026994
-0.00143979
-9.45562e-05
0.00121009
0.00260133
0.00395786
0.00541111
0.00687428
0.00847261
0.0100804
0.0117449
0.0132826
0.0148099
-0.00758162
-0.18707
-0.00399394
-0.00546778
-0.00262855
-0.183252
-0.167949
-0.00391737
-0.0034347
-0.00291235
-0.00240624
-0.00996365
-0.0087804
-0.00762596
-0.00655967
-0.00552128
-0.179676
-0.170755
-0.00457206
-0.00382621
-0.002743
-0.17615
0.0512085
0.0506308
0.051018
0.0515083
-0.00670275
-0.0064551
-0.00328479
-0.00618262
-0.173981
0.0494861
0.0486149
-0.177222
0.047715
0.0466916
-0.180696
0.04585
0.0446875
-0.184555
0.0439488
0.0425411
-0.18878
0.0420373
0.0403039
-0.193348
0.0401098
0.0380839
-0.198268
0.0381245
0.0358761
-0.203273
0.0360792
0.0336237
-0.208201
0.0339977
0.0312499
-0.213367
0.0319102
0.0288048
-0.218867
0.0298609
-0.172895
-0.17293
0.0262234
-0.224637
-0.230859
-0.237736
0.0278229
0.0179866
0.0211094
0.0236434
0.0257453
-0.245248
-0.249118
-0.252928
-0.256755
-0.260648
-0.264718
-0.268938
-0.273451
-0.278321
-0.283739
-0.28978
-0.29665
-0.304377
-0.312979
-0.322183
-0.331866
-0.341265
-0.349492
-0.355582
-0.358822
-0.358461
-0.353925
-0.344648
-0.330774
-0.312902
-0.29239
-0.270129
-0.247754
-0.22626
-0.206078
-0.188062
-0.171968
-0.158033
-0.145751
-0.134879
-0.125345
-0.116782
-0.10905
-0.102011
-0.0955068
-0.0894057
-0.0835637
-0.078038
-0.0726952
-0.0675036
-0.06255
-0.0577786
-0.0533248
-0.0491445
-0.0451969
-0.0415587
-0.0381889
-0.0350769
-0.0322103
-0.0296174
-0.0280276
-0.0265966
-0.0253272
-0.0242166
-0.0232655
-0.0224829
-0.0218633
-0.0214486
-0.0212046
-0.0211335
-0.0212408
-0.0215914
-0.0222277
-0.0230226
-0.0241009
-0.0254374
-0.0269544
-0.0286879
-0.0304902
-0.0324089
-0.0345808
-0.0369733
-0.0395248
-0.042201
-0.044912
-0.0477278
-0.0506179
-0.0536113
-0.0567451
-0.059908
-0.0630264
-0.0659286
-0.0687828
-0.0715674
-0.0744709
-0.0773432
-0.0801518
-0.0828883
-0.0876607
-0.092765
-0.0981687
-0.103798
-0.109687
-0.115817
-0.122256
-0.129123
-0.136348
-0.143955
-0.152156
-0.160926
-0.170205
-0.180297
-0.1911
-0.20262
-0.215087
-0.228172
-0.241747
-0.255856
-0.270255
-0.284736
-0.298696
-0.311213
-0.321608
-0.329525
-0.334244
-0.335692
-0.333616
-0.328163
-0.320562
-0.311505
-0.302079
-0.293607
-0.28642
-0.279983
-0.274939
-0.271127
-0.267738
-0.265136
-0.263667
-0.262341
-0.26102
-0.260892
-0.260914
-0.260208
-0.259896
-0.259879
0.0236028
-0.00574263
-0.0053887
-0.00501282
-0.00457357
0.0214238
0.0191648
0.0167996
0.0152534
0.0137122
0.012165
0.0106443
0.0091415
0.00765608
0.00620848
0.00483494
0.00351674
0.00229277
0.00111901
1.05087e-05
-0.00108136
-0.00215716
-0.00323475
-0.00429388
-0.00532136
-0.00625401
-0.00696813
-0.00741949
-0.00766447
-0.00783425
-0.00793114
-0.00769753
-0.00680957
-0.0068746
-0.00661591
-0.00671839
-0.00681572
-0.253853
-0.00675415
-0.248785
-0.00679491
-0.00670048
-0.00669771
-0.0067157
-0.242994
-0.236999
-0.230974
-0.00596057
-0.225152
-0.0042541
-0.00390398
-0.00356705
-0.219341
-0.00695888
-0.213989
-0.00708869
-0.208788
-0.00713502
-0.203844
-0.00302321
-0.00726387
-0.198974
-0.00455201
-0.00737881
-0.0072371
-0.194516
-0.00452584
-0.00247388
-0.00698051
-0.00732102
-0.00702105
-0.190334
-0.00452108
-0.00220643
-0.186476
-0.169724
-0.00329096
-0.00193656
-0.00900572
-0.00802945
-0.00700134
-0.00596668
-0.00487808
-0.00378136
-0.00263576
-0.00144622
-0.000179443
0.00115012
0.00247789
0.0038416
0.00518536
0.00657933
0.00796368
0.00942705
0.0109152
0.0126167
-0.00456158
-0.182855
-0.00314445
-0.00781111
-0.00668084
-0.00559897
-0.00458851
-0.00270733
-0.00217251
-0.00166897
-0.0037597
-0.0030238
-0.173749
-0.179341
-0.00271452
-0.172813
0.0509206
0.049398
0.048964
0.0494166
0.0501176
0.0506555
-0.176979
0.0477312
0.0470026
-0.180283
0.0459695
0.0450928
-0.183945
0.0441184
0.0430742
-0.187871
0.0422392
0.0409032
-0.192179
0.0403396
0.0387198
-0.196766
0.0384158
0.0365567
-0.201649
0.0364221
0.0343593
-0.206456
0.0344211
0.0320692
-0.211347
0.0323692
0.0296547
-0.216598
0.0303354
-0.176074
-0.176114
-0.17633
0.0271493
-0.222151
-0.228014
-0.234454
0.028318
0.0192974
0.0219488
0.0245369
0.0262878
-0.241565
-0.245381
-0.249171
-0.252962
-0.25681
-0.260799
-0.264963
-0.269322
-0.274046
-0.279057
-0.284488
-0.290401
-0.296967
-0.304208
-0.312012
-0.320148
-0.328237
-0.335232
-0.340213
-0.342872
-0.342327
-0.338085
-0.329693
-0.317141
-0.300972
-0.282136
-0.261692
-0.241015
-0.220654
-0.201394
-0.183973
-0.168218
-0.154521
-0.142261
-0.131449
-0.121987
-0.113429
-0.105856
-0.0988817
-0.0924648
-0.0863945
-0.0805914
-0.0750706
-0.0697251
-0.06465
-0.0597716
-0.0551115
-0.050793
-0.0466847
-0.0428695
-0.0393467
-0.0361393
-0.0332008
-0.0305069
-0.0289682
-0.0276289
-0.0264589
-0.0254738
-0.0246719
-0.0241032
-0.023719
-0.0235436
-0.0235327
-0.0237037
-0.0240909
-0.0247211
-0.0254874
-0.0266258
-0.0280532
-0.0296047
-0.0311909
-0.0330446
-0.035185
-0.0374946
-0.0399083
-0.042577
-0.0452828
-0.0480383
-0.0509193
-0.0539287
-0.0571336
-0.0603858
-0.0636667
-0.0666985
-0.0697125
-0.0726125
-0.0756853
-0.0787551
-0.0818217
-0.0847557
-0.0897338
-0.0950073
-0.10057
-0.106383
-0.112364
-0.118742
-0.125478
-0.132557
-0.140132
-0.148456
-0.157437
-0.167234
-0.177765
-0.18925
-0.201695
-0.2151
-0.229438
-0.24446
-0.260095
-0.276148
-0.292231
-0.307699
-0.321492
-0.332928
-0.341595
-0.346462
-0.347661
-0.344803
-0.337956
-0.328701
-0.317912
-0.306896
-0.297088
-0.288702
-0.28144
-0.275759
-0.271404
-0.267575
-0.264872
-0.263012
-0.261398
-0.260254
-0.259564
-0.259287
-0.258775
-0.258283
-0.25797
-0.256936
-0.255572
0.0242217
0.0220896
0.0199277
0.0176634
0.0161409
0.0146151
0.013069
0.0115434
0.0100303
0.00854773
0.00709967
0.00570379
0.00437609
0.00312733
0.00196735
0.000845311
-0.000242575
-0.001309
-0.0023596
-0.00340982
-0.00442384
-0.00534114
-0.00609514
-0.00668434
-0.00712726
-0.00741412
-0.00651742
-0.00626369
-0.00639216
-0.00651237
-0.00642286
-0.251323
-0.00631904
-0.00627311
-0.00629785
-0.00634656
-0.245877
-0.240102
-0.234177
-0.00587705
-0.0056226
-0.00525459
-0.00486793
-0.0044359
-0.228352
-0.00408935
-0.00371938
-0.0033647
-0.00302851
-0.222582
-0.00667965
-0.217123
-0.00687231
-0.212038
-0.00697608
-0.207187
-0.00241367
-0.00707162
-0.202376
-0.00725825
-0.00711246
-0.00708452
-0.197815
-0.00369888
-0.00211216
-0.00672135
-0.00640982
-0.006104
-0.00681769
-0.00650943
-0.193586
-0.00363948
-0.00181251
-0.189721
-0.00149776
-0.00363079
-0.186015
-0.00250692
-0.00683986
-0.00579584
-0.00475713
-0.00364123
-0.00255291
-0.00139082
-0.000240455
0.00102781
0.00231657
0.00370705
0.00502871
0.00639943
0.00775617
0.00912591
0.0104561
0.0117701
0.0131007
-0.00361786
-0.00119148
-0.00232914
-0.182495
-0.00570829
-0.00464141
-0.0036106
-0.00192043
-0.00138651
-0.00086857
-0.00291634
-0.00216705
-0.179158
-0.176649
-0.00663436
-0.00686105
-0.00354402
-0.243048
-0.177378
-0.178399
-0.179854
-0.180003
0.0491439
0.0476609
0.0473208
0.0477691
0.0484355
0.0487996
0.0460129
0.0454267
-0.183449
0.0442326
0.0435108
-0.187198
0.0424014
0.0414671
-0.191186
0.0405429
0.0393074
-0.195552
0.0386508
0.0371729
-0.2001
0.036717
0.0350359
-0.204864
0.0347472
0.0328257
-0.20954
0.0327844
0.0304641
-0.214493
0.0307539
0.0279914
-0.219832
-0.225464