/*--------------------------------*- C++ -*----------------------------------*\
| =========                 |                                                 |
| \\      /  F ield         | OpenFOAM: The Open Source CFD Toolbox           |
|  \\    /   O peration     | Version:  v1612+                                |
|   \\  /    A nd           | Web:      www.OpenFOAM.com                      |
|    \\/     M anipulation  |                                                 |
\*---------------------------------------------------------------------------*/
FoamFile
{
    version     2.0;
    format      ascii;
    class       surfaceScalarField;
    location    "1";
    object      phi;
}
// * * * * * * * * * * * * * * * * * * * * * * * * * * * * * * * * * * * * * //

dimensions      [0 3 -1 0 0 0 0];

internalField   nonuniform List<scalar> 
225094
(
6.67655e-06
-8.89937e-07
-6.6952e-06
9.08581e-07
-1.21478e-06
7.28546e-06
-6.74821e-06
6.77528e-07
-7.73591e-07
6.39982e-06
8.29406e-07
-6.45563e-06
-5.42634e-06
-2.16202e-06
5.36246e-06
2.22589e-06
-7.45175e-07
6.37235e-06
-6.40077e-06
-6.91982e-07
6.34467e-06
-6.39787e-06
-6.66363e-07
6.32114e-06
-6.34675e-06
-6.38762e-07
6.28256e-06
-6.31016e-06
-6.28498e-07
6.19368e-06
-6.20394e-06
-4.79714e-07
6.0152e-06
5.16923e-07
-6.05241e-06
-4.97484e-07
5.96606e-06
-5.94829e-06
-5.90497e-07
5.99034e-06
-5.89732e-06
-4.17521e-07
6.05043e-06
4.77416e-07
-6.11033e-06
-4.33197e-07
6.10832e-06
-6.09264e-06
6.80801e-06
-8.70821e-07
-6.85048e-06
9.13288e-07
-7.49448e-07
6.47074e-06
7.71949e-07
-6.49324e-06
-9.23293e-07
-7.52803e-07
9.92323e-07
6.83773e-07
-5.29461e-06
-2.07082e-06
5.18172e-06
2.18371e-06
-4.61731e-06
7.74664e-07
-6.48235e-07
4.49088e-06
-1.74466e-06
3.26395e-06
-6.28586e-06
4.76657e-06
-6.8908e-07
5.80664e-06
7.36844e-07
-5.8544e-06
7.16125e-06
-7.51075e-07
-7.40948e-06
9.99308e-07
5.89092e-06
-6.00975e-07
5.20241e-07
-5.81018e-06
5.85577e-06
-3.93272e-07
4.28413e-07
5.87898e-06
-6.16693e-07
5.93487e-07
-1.02103e-07
-4.71202e-06
2.11728e-07
4.6024e-06
4.71846e-10
-4.68807e-06
4.58549e-06
-4.68556e-06
1.39242e-07
4.54679e-06
-4.29947e-07
-4.72277e-06
4.9243e-07
4.66029e-06
-3.54351e-07
-4.75305e-06
4.67745e-06
-2.36962e-07
-4.81665e-06
4.69926e-06
5.0474e-07
-4.58419e-06
-4.44236e-07
4.52369e-06
-4.89788e-06
-1.34401e-06
1.47607e-06
4.76582e-06
-1.24925e-07
-4.7207e-06
2.09706e-07
4.63592e-06
-4.54951e-07
-4.80288e-06
5.23153e-07
4.73468e-06
4.80358e-07
-4.45096e-06
-4.05261e-07
4.37586e-06
-1.50188e-06
-4.96851e-06
1.58193e-06
4.88846e-06
-1.28339e-07
-4.90398e-06
2.71445e-07
4.76087e-06
-5.27356e-07
-4.84759e-06
5.78032e-07
4.79691e-06
3.57486e-07
-4.47098e-06
-2.27946e-07
4.34144e-06
-1.62492e-06
-5.05159e-06
1.72938e-06
4.94713e-06
-2.90588e-07
-4.95425e-06
3.8325e-07
4.86158e-06
5.94481e-06
-3.89934e-07
-5.92965e-06
3.74773e-07
-5.96258e-07
-4.85368e-06
6.23153e-07
4.82679e-06
1.88443e-07
-4.63884e-06
-3.45563e-08
4.48496e-06
-1.68129e-06
-5.11643e-06
1.71582e-06
5.0819e-06
-4.20296e-07
-5.01559e-06
5.16695e-07
4.9192e-06
6.04384e-06
-2.14497e-07
-6.12382e-06
2.94482e-07
-6.49463e-07
-4.91822e-06
6.75234e-07
4.89245e-06
2.74735e-08
-4.67382e-06
9.39861e-08
4.55236e-06
-1.66777e-06
-5.08229e-06
1.70842e-06
5.04164e-06
-4.88605e-07
-5.09556e-06
5.74503e-07
5.00966e-06
-6.74807e-07
-4.97325e-06
7.04974e-07
4.94309e-06
-1.01466e-07
-4.69402e-06
2.56972e-07
4.53851e-06
-5.20601e-06
-1.88048e-06
5.0412e-06
2.0453e-06
-5.05463e-06
-1.74184e-06
1.78514e-06
5.01133e-06
-6.23596e-07
-5.21043e-06
7.04546e-07
5.12948e-06
-7.36312e-07
-5.04949e-06
8.19016e-07
4.96679e-06
-2.36858e-07
-4.67072e-06
4.06135e-07
4.50144e-06
-7.1213e-07
-5.25133e-06
7.75579e-07
5.18788e-06
6.60679e-06
2.75965e-07
-2.73268e-07
-6.60949e-06
6.52075e-06
2.3252e-07
-6.55828e-06
-1.94982e-07
6.42252e-06
2.30381e-07
-1.32159e-07
6.34081e-06
1.28014e-07
-4.62941e-08
2.00644e-08
6.2386e-06
8.21416e-08
-7.60854e-07
-5.13584e-06
8.80567e-07
5.01613e-06
-3.85089e-07
-4.70641e-06
5.96639e-07
4.49487e-06
-7.85947e-07
-5.36881e-06
8.8232e-07
5.27244e-06
-8.80712e-07
-5.23565e-06
9.73278e-07
5.14308e-06
-6.3816e-07
-4.76006e-06
8.41084e-07
4.55714e-06
-8.88271e-07
-5.4358e-06
9.64105e-07
5.35996e-06
-1.07225e-06
-5.37741e-06
1.12584e-06
5.32382e-06
-7.51356e-07
-4.80257e-06
9.59934e-07
4.59399e-06
-9.69713e-07
-5.48132e-06
1.04776e-06
5.40328e-06
-1.15129e-06
-5.5239e-06
1.24471e-06
5.43048e-06
-8.85121e-07
-4.83842e-06
1.10252e-06
4.62102e-06
-9.80069e-07
-5.50599e-06
1.06615e-06
5.41991e-06
-1.17544e-06
-5.5601e-06
1.19638e-06
5.53916e-06
-1.03711e-06
-4.77671e-06
1.18722e-06
4.62661e-06
-1.06492e-06
-5.56879e-06
1.14842e-06
5.48529e-06
-1.14122e-06
-5.59897e-06
1.19723e-06
5.54296e-06
-1.03412e-06
-4.64157e-06
1.16484e-06
4.51085e-06
-1.07757e-06
-5.57728e-06
1.1771e-06
5.47775e-06
-1.1567e-06
-5.60991e-06
1.21319e-06
5.55343e-06
-1.13374e-06
-4.4901e-06
1.20823e-06
4.41561e-06
-1.07366e-06
-5.56589e-06
1.10337e-06
5.53619e-06
-1.20051e-06
-5.65065e-06
1.20868e-06
5.64249e-06
-1.13493e-06
-4.44848e-06
1.21435e-06
4.36906e-06
-1.07548e-06
-5.57158e-06
1.12174e-06
5.52532e-06
-1.18158e-06
-5.7247e-06
1.23326e-06
5.67303e-06
-1.17804e-06
-4.48863e-06
1.28495e-06
4.38172e-06
-1.12577e-06
-5.5863e-06
1.13639e-06
5.57568e-06
-1.20039e-06
-5.7493e-06
1.19805e-06
5.75164e-06
-1.41822e-06
-4.66036e-06
1.53841e-06
4.54017e-06
-1.13763e-06
-5.60749e-06
1.17074e-06
5.57439e-06
-1.1461e-06
-4.88632e-06
4.73118e-06
1.30123e-06
-4.93522e-06
-9.66071e-07
4.7552e-06
-1.27584e-06
-5.83365e-06
1.33116e-06
5.77833e-06
-1.62774e-06
-4.79117e-06
1.7468e-06
4.67211e-06
-1.79354e-06
-4.9693e-06
1.85562e-06
4.90722e-06
-1.82018e-06
-5.20942e-06
1.91189e-06
5.11772e-06
-1.15288e-06
-5.66974e-06
1.18034e-06
5.64228e-06
-6.01329e-06
-1.81349e-06
5.94826e-06
1.87853e-06
-5.96625e-06
-1.68489e-06
5.93794e-06
1.7132e-06
-5.99191e-06
-1.49069e-06
1.61004e-06
5.87255e-06
-2.1715e-06
-4.09156e-06
2.09402e-06
4.16903e-06
-4.6966e-06
-2.1903e-06
4.7154e-06
-1.08369e-06
-5.75802e-06
1.19257e-06
5.64915e-06
-5.41288e-06
-1.84841e-06
1.90241e-06
5.35887e-06
-5.40243e-06
-1.84382e-06
1.83338e-06
-5.3899e-06
-1.87933e-06
1.8668e-06
-5.31226e-06
-1.86019e-06
1.78255e-06
-5.22537e-06
-1.83691e-06
1.75002e-06
-5.09435e-06
-1.87344e-06
1.74242e-06
-4.99914e-06
-1.87563e-06
1.78042e-06
-4.85903e-06
-1.91411e-06
1.77399e-06
-4.69457e-06
-1.93448e-06
1.77002e-06
-4.50216e-06
-1.9342e-06
1.7418e-06
-4.28589e-06
-1.92373e-06
1.70746e-06
-4.02226e-06
-1.90735e-06
1.64372e-06
-3.73122e-06
-1.8254e-06
1.53437e-06
-3.43212e-06
-1.65176e-06
1.35265e-06
-3.15373e-06
-1.38277e-06
1.10439e-06
-2.78607e-06
-1.08615e-06
7.18491e-07
-2.40087e-06
-6.63953e-07
2.78758e-07
-2.02127e-06
-2.68948e-08
-3.52706e-07
-1.63918e-06
6.94043e-07
-1.07614e-06
-1.27126e-06
1.5222e-06
-1.89011e-06
-8.9525e-07
2.39781e-06
-2.77383e-06
-5.74329e-07
3.27975e-06
-3.60067e-06
-3.66823e-07
4.12075e-06
-4.32825e-06
-1.61401e-07
4.77492e-06
-4.98034e-06
4.13864e-09
5.31618e-06
-5.48172e-06
3.01552e-08
5.71625e-06
-5.74226e-06
-8.27256e-09
5.92074e-06
-5.88231e-06
-8.67822e-08
5.93867e-06
-5.86016e-06
-2.06625e-07
5.85093e-06
-5.73109e-06
-3.69801e-07
5.66749e-06
-5.50431e-06
-4.24204e-07
5.34893e-06
-5.29453e-06
-5.13121e-07
5.15533e-06
-5.06641e-06
-5.73716e-07
4.85166e-06
-4.79107e-06
-6.37667e-07
4.58392e-06
-4.51997e-06
-6.88497e-07
4.35046e-06
-4.29964e-06
-6.72745e-07
4.12756e-06
-4.14331e-06
-6.4689e-07
3.9463e-06
-3.97216e-06
-5.95796e-07
3.72557e-06
-3.77667e-06
-4.898e-07
3.56193e-06
-3.66792e-06
-3.89446e-07
3.44106e-06
-3.54142e-06
-3.10455e-07
3.33634e-06
-3.41533e-06
-2.18441e-07
3.2072e-06
-3.29921e-06
-1.14918e-07
3.10023e-06
-3.20375e-06
-2.46709e-08
3.02321e-06
-3.11346e-06
3.2395e-08
2.96255e-06
-3.01961e-06
1.16292e-07
2.90027e-06
-2.98416e-06
1.92968e-07
2.81327e-06
-2.88994e-06
2.59502e-07
2.7406e-06
-2.80713e-06
3.4097e-07
2.65002e-06
-2.73149e-06
3.9049e-07
2.60437e-06
-2.65389e-06
4.62262e-07
2.49317e-06
-2.56494e-06
5.05467e-07
2.38119e-06
-2.4244e-06
5.0637e-07
2.31292e-06
-2.31382e-06
4.8198e-07
2.21861e-06
-2.19422e-06
4.58291e-07
2.17628e-06
-2.15259e-06
4.89141e-07
2.09398e-06
-2.12483e-06
5.44959e-07
1.97474e-06
-2.03056e-06
5.91169e-07
1.84332e-06
-1.88953e-06
5.75053e-07
1.77346e-06
-1.75735e-06
5.33577e-07
1.72907e-06
-1.68759e-06
1.73123e-06
4.73053e-07
-1.67071e-06
1.75559e-06
-2.1609e-07
1.91734e-07
1.69775e-06
-1.27598e-08
7.05958e-08
1.62608e-06
1.1491e-07
-4.32349e-08
1.5553e-06
2.78326e-07
-2.07552e-07
1.47735e-06
4.89814e-07
-4.11866e-07
1.41585e-06
6.91945e-07
-6.30438e-07
1.33767e-06
8.93324e-07
-8.15145e-07
1.25239e-06
1.00962e-06
-9.24343e-07
1.1473e-06
1.03853e-06
-9.33439e-07
1.03017e-06
1.0632e-06
-9.46074e-07
9.19794e-07
1.14976e-06
-1.03938e-06
8.03232e-07
1.26287e-06
-1.14631e-06
6.58365e-07
1.39425e-06
-1.24938e-06
5.21095e-07
1.48059e-06
-1.34332e-06
3.55747e-07
1.55852e-06
-1.39317e-06
1.79861e-07
1.6198e-06
-1.44391e-06
-8.5957e-09
1.65301e-06
-1.46455e-06
-2.18979e-07
1.6373e-06
-1.42692e-06
-4.35415e-07
1.63308e-06
-1.41664e-06
-6.15455e-07
1.73358e-06
-1.55354e-06
-7.08359e-07
1.85734e-06
-1.76443e-06
-8.03031e-07
1.99303e-06
-1.89836e-06
-9.30289e-07
2.07844e-06
-1.95119e-06
-1.06618e-06
2.07531e-06
-1.93943e-06
-1.17282e-06
2.01818e-06
-1.91153e-06
-1.32855e-06
2.07228e-06
-1.91654e-06
-1.48416e-06
2.11959e-06
-1.96399e-06
-1.62854e-06
2.07932e-06
-1.93494e-06
-1.82552e-06
2.0568e-06
-1.85982e-06
-1.9885e-06
2.03823e-06
-1.87525e-06
-2.13689e-06
1.97682e-06
-1.82843e-06
-2.2725e-06
1.88659e-06
-1.75098e-06
-2.34474e-06
1.82719e-06
-1.75495e-06
-2.4017e-06
1.73892e-06
-1.68196e-06
-2.43026e-06
1.56345e-06
-1.53488e-06
-2.51048e-06
1.42416e-06
-1.34395e-06
-2.60144e-06
1.25733e-06
-1.16637e-06
-2.73428e-06
1.1342e-06
-1.00136e-06
-2.84326e-06
9.81329e-07
-8.72344e-07
-2.89556e-06
7.20056e-07
-6.67758e-07
-2.8695e-06
3.48852e-07
-3.74908e-07
-2.85637e-06
5.47133e-09
-1.86042e-08
-2.87889e-06
-2.09431e-07
2.31955e-07
-2.93367e-06
-4.11584e-07
4.66358e-07
-2.97548e-06
-6.52482e-07
6.94289e-07
-3.05279e-06
-8.11116e-07
8.88426e-07
-3.18165e-06
-9.06994e-07
1.03586e-06
-3.30129e-06
-9.63099e-07
1.08274e-06
-3.38873e-06
-8.96698e-07
9.84143e-07
-8.00613e-07
-3.53776e-06
9.49638e-07
-7.02285e-07
3.54896e-06
-3.64728e-06
-6.05757e-07
3.5436e-06
-3.64013e-06
-5.82512e-07
3.58792e-06
-3.61116e-06
-5.53002e-07
3.61597e-06
-3.64548e-06
-4.84923e-07
3.64024e-06
-3.70832e-06
-4.41298e-07
3.59673e-06
-3.64035e-06
-3.91422e-07
3.57404e-06
-3.62392e-06
-3.14551e-07
3.52619e-06
-3.60306e-06
-2.7888e-07
3.58875e-06
-3.62442e-06
-2.57252e-07
3.6646e-06
-3.68622e-06
-2.66296e-07
3.69614e-06
-3.6871e-06
-2.93845e-07
3.73523e-06
-3.70768e-06
-3.18957e-07
3.76896e-06
-3.74385e-06
-2.65263e-07
3.73246e-06
-3.78615e-06
-2.3399e-07
3.77887e-06
-3.81014e-06
-2.29466e-07
3.84442e-06
-3.84895e-06
-2.32763e-07
3.85352e-06
-3.85022e-06
-2.63811e-07
3.846e-06
-3.81495e-06
-3.33624e-07
3.84162e-06
-3.77181e-06
-4.42993e-07
3.81617e-06
-3.7068e-06
-5.18456e-07
3.73924e-06
-3.66378e-06
-6.33829e-07
3.71042e-06
-3.59505e-06
-7.45378e-07
3.66284e-06
-3.55129e-06
-9.22071e-07
3.64987e-06
-3.47318e-06
-1.11627e-06
3.58731e-06
-3.39311e-06
-1.29978e-06
3.50735e-06
-3.32384e-06
-1.477e-06
3.4436e-06
-3.26638e-06
-1.61578e-06
3.34434e-06
-3.20555e-06
-1.7145e-06
3.19992e-06
-3.10121e-06
-1.79196e-06
2.96627e-06
-2.88881e-06
-1.86692e-06
2.71525e-06
-2.6403e-06
-1.89927e-06
2.45464e-06
-2.42229e-06
-1.86622e-06
2.15017e-06
-2.18323e-06
-1.83264e-06
1.8373e-06
-1.87088e-06
-1.76196e-06
1.55645e-06
-1.62712e-06
-1.6595e-06
1.23409e-06
-1.33656e-06
-1.54725e-06
9.60051e-07
-1.0723e-06
-1.41699e-06
6.98609e-07
-8.28874e-07
-1.239e-06
4.95462e-07
-6.73445e-07
-1.08293e-06
3.47031e-07
-5.03107e-07
-9.17587e-07
1.87978e-07
-3.53319e-07
-7.57633e-07
8.54893e-08
-2.45443e-07
-5.86369e-07
3.50152e-09
-1.74766e-07
-4.18747e-07
-6.79835e-08
-9.9638e-08
-2.63286e-07
-1.54935e-07
-5.26584e-10
-1.21497e-07
-2.25767e-07
8.39778e-08
-5.68138e-10
-2.82075e-07
1.61146e-07
1.04433e-07
-3.47458e-07
2.42456e-07
2.20034e-07
-3.70621e-07
2.55021e-07
3.28585e-07
-4.46556e-07
3.38005e-07
4.61887e-07
-4.90481e-07
3.57178e-07
5.99719e-07
-5.03395e-07
3.65563e-07
6.69502e-07
-5.15572e-07
4.45789e-07
7.18662e-07
-5.66217e-07
5.17056e-07
8.01915e-07
-6.02311e-07
5.19058e-07
-6.63003e-07
5.41625e-07
-1.92777e-06
-3.73507e-06
1.83092e-06
3.83192e-06
-1.24956e-06
-5.7561e-06
1.27229e-06
5.73336e-06
5.84083e-06
-8.33219e-07
7.90816e-07
-5.79843e-06
5.71075e-06
-8.96452e-07
1.02653e-06
5.7365e-06
-1.14227e-06
1.11651e-06
-1.08805e-06
5.76759e-06
1.05696e-06
-1.66949e-06
-3.39179e-06
1.50429e-06
3.55699e-06
-1.28658e-06
-5.88306e-06
1.37332e-06
5.79632e-06
7.23932e-06
-4.96597e-07
4.62662e-07
-7.20538e-06
-1.35674e-06
-6.03928e-06
1.48952e-06
5.9065e-06
-6.10011e-06
-1.48709e-06
1.58096e-06
6.00624e-06
-6.15082e-06
-1.55846e-06
1.60918e-06
-6.2437e-06
-1.58262e-06
1.67549e-06
-6.29603e-06
-1.56515e-06
1.61748e-06
-6.42417e-06
-1.36987e-06
1.49802e-06
-6.39151e-06
-1.4666e-06
1.43394e-06
-6.49119e-06
-1.41457e-06
1.51425e-06
-6.49419e-06
-1.42175e-06
1.42474e-06
-6.51278e-06
-1.42075e-06
1.43934e-06
-6.51403e-06
-1.39211e-06
1.39336e-06
-6.54827e-06
-1.35202e-06
1.38627e-06
-6.54102e-06
-1.38888e-06
1.38163e-06
-6.63406e-06
-1.33429e-06
1.42733e-06
-6.70912e-06
-1.33033e-06
1.40539e-06
-6.70577e-06
-1.29571e-06
1.29236e-06
-6.76677e-06
-1.1616e-06
1.2226e-06
-6.80997e-06
-1.20784e-06
1.25104e-06
-6.70095e-06
-1.16976e-06
1.06074e-06
-6.69207e-06
-1.06753e-06
1.05865e-06
-6.73272e-06
-8.89072e-07
9.29715e-07
-6.72917e-06
-8.77481e-07
8.7394e-07
-6.63703e-06
-7.55177e-07
6.6303e-07
-7.37928e-06
3.46273e-08
7.0763e-07
1.78758e-06
-8.71634e-06
-4.50522e-07
-3.06964e-07
7.33146e-06
3.59846e-07
-7.38435e-06
7.12629e-06
-6.39572e-07
-7.07416e-06
5.87443e-07
-1.81384e-06
-9.89718e-07
1.93398e-06
8.69582e-07
-2.76132e-06
-1.2914e-06
1.13632e-06
2.91641e-06
6.9883e-06
-8.26442e-07
-6.9164e-06
7.54538e-07
6.83294e-06
-9.54891e-07
-6.78169e-06
9.03641e-07
6.71515e-06
-1.01218e-06
-6.69027e-06
9.87303e-07
6.70527e-06
-1.02149e-06
-6.68998e-06
1.0062e-06
-9.65907e-07
6.62975e-06
-6.62347e-06
9.59626e-07
-9.31331e-07
6.58535e-06
-6.61992e-06
6.74315e-06
-8.03723e-07
-6.7116e-06
7.72169e-07
-5.08934e-06
-2.37306e-06
5.09141e-06
2.37099e-06
-8.04483e-07
6.53853e-06
7.84919e-07
-6.51897e-06
-5.36343e-06
-2.44337e-06
5.31721e-06
2.4896e-06
-8.0732e-07
6.55809e-06
8.28994e-07
-6.57977e-06
-3.09371e-07
7.30816e-06
3.75172e-07
-7.37396e-06
-5.59329e-06
-2.51193e-06
5.5354e-06
2.56983e-06
7.42375e-06
-3.75881e-07
-7.59985e-06
5.51977e-07
7.46986e-06
-3.06322e-07
-7.58545e-06
4.21915e-07
-3.79035e-07
7.4428e-06
3.98528e-07
-7.46229e-06
7.39914e-06
-3.20945e-07
-7.45723e-06
-8.72526e-07
6.61625e-06
9.12267e-07
-6.65599e-06
6.79157e-06
-8.60308e-07
8.48865e-07
-6.78012e-06
6.73834e-06
-8.68208e-07
9.21431e-07
6.80433e-06
-9.08665e-07
8.42679e-07
6.7763e-06
-9.42458e-07
9.70487e-07
6.65228e-06
-9.15661e-07
1.03968e-06
6.59322e-06
-1.03303e-06
1.09209e-06
6.54039e-06
-1.14632e-06
1.19915e-06
6.47884e-06
-1.19992e-06
1.26148e-06
6.47495e-06
-1.27625e-06
1.28014e-06
6.44537e-06
-1.22821e-06
1.25779e-06
6.35215e-06
-1.30237e-06
1.39558e-06
6.30786e-06
-1.44823e-06
1.49253e-06
6.2164e-06
-1.49985e-06
1.59131e-06
6.21818e-06
-1.54929e-06
1.5475e-06
6.11828e-06
-1.48422e-06
1.58412e-06
6.09136e-06
-1.54424e-06
1.57115e-06
6.02919e-06
-1.5486e-06
1.61077e-06
6.01636e-06
-1.55973e-06
1.57256e-06
6.00802e-06
-1.55295e-06
1.5613e-06
5.96853e-06
-1.67359e-06
1.71307e-06
5.9565e-06
-1.92362e-06
1.93565e-06
-1.96235e-06
1.90556e-06
-5.84154e-06
-2.53722e-06
5.72709e-06
2.65167e-06
-5.7929e-06
-2.43155e-06
5.70653e-06
2.51792e-06
6.99957e-06
-1.03088e-06
-6.98372e-06
1.01504e-06
-5.85813e-06
-2.36999e-06
5.67226e-06
2.55586e-06
2.89253e-07
5.95237e-06
2.97978e-09
-6.2446e-06
5.59194e-06
-6.51747e-06
-2.56775e-07
6.94586e-06
-2.16603e-07
-6.47248e-06
9.87042e-08
6.78103e-06
-6.59341e-06
-2.86328e-07
7.10124e-06
-1.42682e-06
-6.85166e-06
1.17724e-06
-5.94309e-06
-2.31942e-06
5.76982e-06
2.49268e-06
-5.33273e-07
6.07663e-06
4.94982e-07
-6.03834e-06
5.74874e-06
-9.18549e-07
8.85451e-07
-5.71564e-06
6.69987e-06
-7.61049e-07
-6.71724e-06
7.78412e-07
-1.96326e-06
7.23885e-06
-6.53105e-06
1.25546e-06
-5.70691e-06
-2.2051e-06
5.52343e-06
2.38858e-06
6.04844e-06
-5.13825e-07
5.51435e-07
-6.08605e-06
-5.88762e-07
6.05498e-06
6.45397e-07
-6.11161e-06
-7.54295e-07
5.81033e-06
7.17973e-07
-5.77401e-06
-4.33338e-07
6.04939e-06
4.36917e-07
-6.05297e-06
6.68244e-06
-8.57461e-07
8.51572e-07
1.12174e-06
5.21234e-06
9.51379e-07
-5.50309e-06
-2.12595e-06
2.2027e-06
-6.38243e-07
6.23312e-06
-6.22337e-06
-6.14329e-07
5.87456e-06
-5.85073e-06
-4.37189e-07
6.07228e-06
-6.06828e-06
6.72169e-06
-8.0361e-07
-7.48736e-07
6.3991e-06
-5.41892e-06
-2.03771e-06
-7.60848e-07
6.38447e-06
-7.53125e-07
6.33695e-06
-7.53801e-07
6.32181e-06
-7.26835e-07
6.25559e-06
-7.75871e-07
6.24271e-06
-4.44068e-07
6.02593e-06
-4.68571e-07
5.99057e-06
-4.86752e-07
6.00852e-06
-5.51483e-07
6.06864e-06
-4.60505e-07
6.01734e-06
6.92247e-06
-7.93724e-07
-7.93945e-07
6.4602e-06
-1.70472e-06
-8.61931e-07
-5.33465e-06
-1.94218e-06
-4.80336e-06
6.90793e-07
5.22522e-06
1.91372e-07
6.65536e-06
-8.43539e-07
-1.61769e-06
-7.50024e-07
4.73288e-06
1.9808e-06
-7.77298e-07
5.77174e-06
7.98197e-06
-6.14254e-07
6.07394e-06
7.67639e-06
-6.44047e-07
5.83395e-06
-6.72588e-08
-4.88173e-06
1.04533e-07
-4.85986e-06
-4.70595e-06
-3.81456e-07
-4.79627e-06
-3.27545e-07
-4.80696e-06
-2.65398e-07
-4.87879e-06
3.98375e-07
-4.50221e-06
-4.94164e-06
-1.45812e-06
6.41976e-08
-4.91324e-06
-4.58383e-07
-4.87186e-06
4.68367e-07
-4.56184e-06
-1.56406e-06
-5.02937e-06
-2.3886e-07
-4.95571e-06
5.79047e-06
-4.46629e-07
5.88924e-06
-4.92046e-07
5.82489e-06
-5.5234e-07
-5.06267e-07
-4.93758e-06
3.64616e-07
-4.64715e-06
-1.57785e-06
-5.15502e-06
-3.62314e-07
-5.01223e-06
5.97785e-06
-3.23948e-07
-5.49709e-07
-4.95343e-06
1.53132e-07
-4.7645e-06
-1.68318e-06
-5.10102e-06
-4.30604e-07
-5.0736e-06
-6.09655e-07
-4.98337e-06
3.68213e-08
-4.81211e-06
-5.16845e-06
-1.76667e-06
-5.12692e-06
-1.69721e-06
-5.13175e-07
-5.20598e-06
-6.69516e-07
-5.04005e-06
-6.16942e-08
-4.86918e-06
-6.19036e-07
-5.30352e-06
6.56825e-06
2.71058e-07
6.51835e-06
2.80284e-07
6.43022e-06
2.16142e-07
6.32692e-06
1.23366e-07
-1.40911e-07
6.16501e-06
-7.40966e-07
-5.06938e-06
-1.70249e-07
-4.88556e-06
-6.71866e-07
-5.36541e-06
-8.20387e-07
-5.19617e-06
-4.10627e-07
-4.93395e-06
-8.10789e-07
-5.44629e-06
-9.42554e-07
-5.36535e-06
-5.99383e-07
-4.91203e-06
-9.10063e-07
-5.49545e-06
-1.08848e-06
-5.44023e-06
-7.65488e-07
-4.9222e-06
-9.41621e-07
-5.51977e-06
-1.14762e-06
-5.55172e-06
-8.66296e-07
-5.00924e-06
-9.85871e-07
-5.58503e-06
-1.11394e-06
-5.58738e-06
-9.22041e-07
-4.8888e-06
-1.06703e-06
-5.57934e-06
-1.14121e-06
-5.61446e-06
-1.02645e-06
-4.74886e-06
-1.11087e-06
-5.54008e-06
-1.13417e-06
-5.67626e-06
-1.00422e-06
-4.62082e-06
-1.10295e-06
-5.53842e-06
-1.12489e-06
-5.70734e-06
-1.04341e-06
-4.5831e-06
-1.09979e-06
-5.59757e-06
-1.19217e-06
-5.73292e-06
-1.23985e-06
-4.667e-06
-1.07736e-06
-5.64658e-06
-4.95041e-06
-1.27991e-06
-1.20313e-06
-5.82201e-06
-1.46819e-06
-4.8199e-06
-1.60117e-06
-4.98355e-06
-1.70712e-06
-5.08236e-06
-1.01364e-06
-5.74673e-06
-5.99215e-06
-1.78759e-06
-5.97219e-06
-1.7046e-06
-5.92617e-06
-1.39818e-06
-1.01137e-06
-5.74207e-06
-5.25226e-06
-1.80557e-06
-5.29101e-06
-1.80508e-06
-5.35728e-06
-1.81306e-06
-5.39805e-06
-1.81943e-06
-5.35081e-06
-1.88414e-06
-5.37878e-06
-1.84547e-06
-5.33206e-06
-1.92236e-06
-5.25545e-06
-1.99072e-06
-5.23904e-06
-1.95088e-06
-5.11187e-06
-2.06138e-06
-4.95411e-06
-2.08149e-06
-4.76434e-06
-2.09712e-06
-4.56654e-06
-2.0232e-06
-4.33426e-06
-1.88404e-06
-4.07206e-06
-1.64497e-06
-3.77504e-06
-1.38317e-06
-3.5289e-06
-9.10095e-07
-3.17186e-06
-3.83929e-07
-2.80912e-06
3.31302e-07
-2.45951e-06
1.17259e-06
-2.09344e-06
2.03174e-06
-1.78132e-06
2.96763e-06
-1.42294e-06
3.76237e-06
-1.19052e-06
4.5425e-06
-1.01051e-06
5.13617e-06
-8.81504e-07
5.58724e-06
-7.90459e-07
5.8297e-06
-7.24742e-07
5.87296e-06
-6.76532e-07
5.80272e-06
-6.71057e-07
5.66201e-06
-6.98849e-07
5.37672e-06
-7.03921e-07
5.1604e-06
-7.44329e-07
4.89207e-06
-8.06016e-07
4.6456e-06
-8.50526e-07
4.39498e-06
-8.64709e-07
4.14174e-06
-8.01619e-07
3.88321e-06
-7.54494e-07
3.67845e-06
-6.67757e-07
3.47519e-06
-5.85339e-07
3.35864e-06
-4.72251e-07
3.22326e-06
-3.76749e-07
3.1117e-06
-2.7002e-07
2.9935e-06
-2.08531e-07
2.96172e-06
-1.12084e-07
2.8661e-06
-2.08649e-08
2.80905e-06
5.11172e-08
2.74128e-06
1.50841e-07
2.64088e-06
2.19959e-07
2.5809e-06
2.68308e-07
2.55602e-06
2.77409e-07
2.48407e-06
2.56258e-07
2.40234e-06
2.45466e-07
2.32371e-06
2.08222e-07
2.25585e-06
2.49043e-07
2.13545e-06
2.93059e-07
2.04996e-06
3.22496e-07
1.9453e-06
3.05415e-07
1.8604e-06
2.63315e-07
1.81556e-06
1.77629e-06
1.75047e-06
1.30662e-08
1.68462e-06
1.80755e-07
1.60572e-06
3.57223e-07
1.54254e-06
5.52998e-07
1.45813e-06
7.7636e-07
1.38589e-06
9.65555e-07
1.30281e-06
1.09271e-06
1.18374e-06
1.1576e-06
1.0614e-06
1.18554e-06
9.49375e-07
1.26178e-06
8.14953e-07
1.39729e-06
6.91371e-07
1.51783e-06
5.3657e-07
1.63539e-06
3.9359e-07
1.7015e-06
2.6955e-07
1.74384e-06
1.56941e-07
1.76562e-06
-2.37661e-08
1.81801e-06
-2.25388e-07
1.8347e-06
-4.11029e-07
1.91922e-06
-6.1254e-07
2.05885e-06
-8.34521e-07
2.21501e-06
-9.92627e-07
2.23655e-06
-1.07212e-06
2.15481e-06
-1.21877e-06
2.16482e-06
-1.39396e-06
2.24747e-06
-1.52425e-06
2.24988e-06
-1.67351e-06
2.22858e-06
-1.87529e-06
2.25858e-06
-2.04674e-06
2.20967e-06
-2.1917e-06
2.12178e-06
-2.31754e-06
2.01243e-06
-2.37449e-06
1.88414e-06
-2.39907e-06
1.7635e-06
-2.46943e-06
1.63381e-06
-2.5351e-06
1.48983e-06
-2.65839e-06
1.38062e-06
-2.79625e-06
1.27206e-06
-2.84659e-06
1.03167e-06
-2.82618e-06
6.99641e-07
-2.78485e-06
3.07524e-07
-2.84444e-06
6.50581e-08
-2.90492e-06
-1.48952e-07
-2.94227e-06
-3.74227e-07
-3.05946e-06
-5.35293e-07
-3.17718e-06
-6.934e-07
-3.29859e-06
-7.85579e-07
-3.42314e-06
-8.38557e-07
-7.70877e-07
-7.43587e-07
3.51631e-06
-6.34375e-07
3.4787e-06
-5.47717e-07
3.52931e-06
-4.51594e-07
3.54411e-06
-3.80908e-07
3.52604e-06
-2.77865e-07
3.471e-06
-2.53967e-07
3.50229e-06
-2.52904e-07
3.58768e-06
-1.98933e-07
3.61063e-06
-1.11551e-07
3.60876e-06
-7.78535e-08
3.70153e-06
-4.91264e-08
3.74023e-06
-1.18414e-07
3.80175e-06
-1.77305e-07
3.83776e-06
-1.74423e-07
3.84154e-06
-1.83222e-07
3.86231e-06
-1.83709e-07
3.84648e-06
-2.4844e-07
3.90635e-06
-3.08615e-07
3.87634e-06
-4.16678e-07
3.8473e-06
-5.46142e-07
3.83989e-06
-7.08678e-07
3.82538e-06
-8.72751e-07
3.81395e-06
-1.11297e-06
3.82753e-06
-1.28337e-06
3.67775e-06
-1.45882e-06
3.61906e-06
-1.57898e-06
3.4645e-06
-1.69194e-06
3.31288e-06
-1.74431e-06
3.01863e-06
-1.77255e-06
2.7435e-06
-1.75694e-06
2.43902e-06
-1.70657e-06
2.09981e-06
-1.64657e-06
1.7773e-06
-1.52757e-06
1.43745e-06
-1.37045e-06
1.07698e-06
-1.16941e-06
7.59009e-07
-9.76989e-07
5.06187e-07
-7.58635e-07
2.77108e-07
-5.24128e-07
1.12524e-07
-3.15072e-07
-2.10785e-08
-1.19384e-07
-1.10199e-07
6.9954e-08
-1.85837e-07
2.52064e-07
-2.50093e-07
4.2574e-07
-3.2861e-07
5.84124e-07
-3.84151e-07
7.1581e-07
-4.1376e-07
8.70772e-07
-5.0242e-07
9.79204e-07
-4.79054e-07
1.1053e-06
-5.72657e-07
1.23128e-06
-6.16453e-07
1.38215e-06
-6.54267e-07
1.49589e-06
-6.2931e-07
1.55265e-06
-6.2298e-07
-6.67357e-07
-1.96146e-06
-4.05787e-06
-4.5314e-06
-2.12665e-06
-1.17046e-06
-5.83712e-06
5.81335e-06
-8.3993e-07
5.78218e-06
-8.65285e-07
5.78049e-06
-1.14058e-06
-9.99235e-07
5.69168e-06
-1.76615e-06
-3.63841e-06
-1.1408e-06
-5.90188e-06
-1.23298e-06
-6.00682e-06
-6.07764e-06
-1.44873e-06
-6.1437e-06
-1.4924e-06
-6.24261e-06
-1.4837e-06
-6.34271e-06
-1.46505e-06
-6.3903e-06
-1.32229e-06
-6.537e-06
-1.3199e-06
-6.49595e-06
-1.45563e-06
-6.5262e-06
-1.3915e-06
-6.56917e-06
-1.37778e-06
-6.56991e-06
-1.39136e-06
-6.55232e-06
-1.36961e-06
-6.5472e-06
-1.394e-06
-6.66069e-06
-1.2208e-06
-6.68553e-06
-1.30549e-06
-6.73718e-06
-1.24406e-06
-6.70491e-06
-1.19386e-06
-6.75574e-06
-1.157e-06
-6.70438e-06
-1.22113e-06
-6.77895e-06
-9.92957e-07
-6.72748e-06
-9.40535e-07
-6.75254e-06
-8.52422e-07
-6.80522e-06
-7.02495e-07
-6.78092e-06
1.03196e-08
-6.5939e-06
1.60056e-06
1.89527e-06
-4.36459e-07
7.36881e-06
7.16802e-06
-5.38327e-07
-2.60231e-06
-1.14873e-06
-3.23093e-06
-1.45227e-06
7.06059e-06
-7.11859e-07
6.8967e-06
-8.90205e-07
6.74604e-06
-9.85781e-07
6.67586e-06
-9.82774e-07
-9.73354e-07
6.58162e-06
6.62441e-06
-1.01242e-06
-4.9972e-06
-2.28244e-06
-5.35708e-06
-2.3794e-06
-8.10742e-07
6.54196e-06
-3.38317e-07
7.36041e-06
-5.70121e-06
-2.33545e-06
6.76966e-06
-9.69811e-08
7.33192e-06
-2.3794e-07
-3.22274e-07
7.45875e-06
7.42138e-06
-3.44513e-07
7.29815e-06
-3.10933e-07
-8.69056e-07
6.55462e-06
6.64684e-06
-8.90905e-07
6.72671e-06
-9.48073e-07
6.72911e-06
-9.11064e-07
6.72439e-06
-9.37744e-07
6.68129e-06
-8.72554e-07
6.6104e-06
-9.62141e-07
6.48714e-06
-1.02306e-06
6.46758e-06
-1.18036e-06
6.42794e-06
-1.23661e-06
6.4266e-06
-1.22686e-06
6.38707e-06
-1.26284e-06
6.26299e-06
-1.32415e-06
6.18749e-06
-1.42435e-06
6.09668e-06
-1.45847e-06
6.11213e-06
-1.49968e-06
6.01268e-06
-1.44479e-06
6.03107e-06
-1.56699e-06
5.93671e-06
-1.46536e-06
5.91792e-06
-1.53416e-06
5.94988e-06
-1.70555e-06
5.93966e-06
-1.9134e-06
-2.01485e-06
-5.96772e-06
-2.38575e-06
-5.94818e-06
-2.38194e-06
-5.99462e-06
-2.29506e-06
2.03533e-07
6.84103e-06
3.16586e-07
6.74041e-06
7.05927e-06
-9.88917e-07
-6.00356e-06
-2.30952e-06
-9.13258e-07
5.7623e-06
6.69349e-06
-7.97334e-07
-1.5548e-06
7.36683e-06
-5.83769e-06
-2.18864e-06
-5.04437e-07
6.06724e-06
6.71799e-06
-7.96596e-07
-5.64061e-06
-2.06757e-06
-7.53399e-07
6.17013e-06
-6.41358e-07
5.83736e-06
-4.38877e-07
6.05108e-06
6.7035e-06
-8.39277e-07
-5.53925e-06
-2.00562e-06
-7.61713e-07
6.21896e-06
-5.14219e-07
5.90203e-06
-4.54987e-07
6.06676e-06
6.85617e-06
-7.37315e-07
-7.79318e-07
6.38448e-06
-5.43248e-06
-1.93987e-06
-8.13668e-07
6.41882e-06
-8.48839e-07
6.37212e-06
-8.23792e-07
6.29677e-06
-8.21627e-07
6.25343e-06
-8.14962e-07
6.23605e-06
-4.72111e-07
6.05917e-06
-4.8537e-07
6.00382e-06
-4.43446e-07
5.9666e-06
-5.34233e-07
6.09844e-06
-5.38268e-07
6.02138e-06
7.04014e-06
-7.74586e-07
-8.04191e-07
6.45365e-06
-2.57684e-06
-8.87403e-07
-5.33901e-06
-1.77162e-06
-4.66342e-06
2.58428e-07
6.35883e-06
6.02204e-07
-1.62932e-07
-4.98419e-06
-1.15474e-07
-4.90732e-06
-4.75723e-06
-3.83627e-07
-4.87103e-06
-3.20206e-07
-4.87038e-06
-3.97979e-07
-4.80102e-06
4.8093e-07
-4.51477e-06
-4.94894e-06
-1.55676e-06
-1.28805e-07
-5.0233e-06
-6.71822e-07
5.85266e-06
-3.99157e-07
-4.97897e-06
4.09123e-07
-4.60635e-06
-1.50648e-06
-5.10074e-06
-2.76277e-07
-5.04174e-06
5.93883e-06
-4.07603e-07
5.8829e-06
-4.36121e-07
5.89353e-06
-5.62968e-07
-4.73222e-07
-5.01407e-06
3.21061e-07
-4.81508e-06
-1.63475e-06
-5.20345e-06
-3.8541e-07
-5.05742e-06
-5.46574e-07
-5.01651e-06
2.1878e-07
-4.94646e-06
-5.19026e-06
-1.70332e-06
-5.16086e-06
-1.63737e-06
-4.0751e-07
-5.17926e-06
-6.01507e-07
-5.05138e-06
9.53585e-08
-4.96916e-06
-5.55897e-07
-5.26912e-06
6.19867e-06
-1.26628e-08
-2.16329e-07
6.05739e-06
-6.61556e-07
-5.11946e-06
-5.36581e-08
-4.98577e-06
-6.23692e-07
-5.35169e-06
-6.62503e-07
-5.22726e-06
-2.4019e-07
-5.056e-06
-7.46204e-07
-5.42999e-06
-7.9558e-07
-5.34314e-06
-3.71306e-07
-5.16203e-06
-8.53061e-07
-5.50329e-06
-1.01348e-06
-5.44035e-06
-5.23035e-07
-5.15449e-06
-9.10321e-07
-5.52675e-06
-1.03738e-06
-5.55047e-06
-6.33223e-07
-5.15527e-06
-9.34903e-07
-5.57074e-06
-1.00529e-06
-5.66036e-06
-8.1163e-07
-5.11965e-06
-1.00249e-06
-5.64957e-06
-1.10855e-06
-5.62004e-06
-8.40048e-07
-5.0752e-06
-1.09358e-06
-5.59663e-06
-1.06216e-06
-5.68647e-06
-8.59987e-07
-4.8931e-06
-1.01597e-06
-5.62706e-06
-1.10415e-06
-5.697e-06
-9.40579e-07
-4.72365e-06
-1.01562e-06
-5.62258e-06
-1.15987e-06
-5.73964e-06
-1.07238e-06
-4.75058e-06
-1.03765e-06
-5.63727e-06
-5.1091e-06
-1.29943e-06
-1.19919e-06
-5.73685e-06
-1.26328e-06
-4.87191e-06
-1.42034e-06
-5.00073e-06
-1.61698e-06
-5.07369e-06
-1.04464e-06
-5.61558e-06
-5.94429e-06
-1.81549e-06
-6.03777e-06
-1.593e-06
-5.88631e-06
-1.33387e-06
-1.08023e-06
-5.67787e-06
-5.19304e-06
-1.69489e-06
-5.3274e-06
-1.67072e-06
-5.37618e-06
-1.76428e-06
-5.40796e-06
-1.78764e-06
-5.49321e-06
-1.7989e-06
-5.50392e-06
-1.83476e-06
-5.56679e-06
-1.85949e-06
-5.59926e-06
-1.95825e-06
-5.66337e-06
-1.88677e-06
-5.65433e-06
-2.07043e-06
-5.53818e-06
-2.19763e-06
-5.44395e-06
-2.19136e-06
-5.30887e-06
-2.15828e-06
-5.1721e-06
-2.02081e-06
-4.9744e-06
-1.84267e-06
-4.82554e-06
-1.53204e-06
-4.58977e-06
-1.14587e-06
-4.33404e-06
-6.39658e-07
-4.04285e-06
4.01122e-08
-3.70127e-06
8.31009e-07
-3.35904e-06
1.68951e-06
-2.94119e-06
2.54978e-06
-2.64238e-06
3.46356e-06
-2.29408e-06
4.1942e-06
-1.98241e-06
4.8245e-06
-1.77943e-06
5.38426e-06
-1.57064e-06
5.62091e-06
-1.41807e-06
5.72038e-06
-1.35309e-06
5.73774e-06
-1.26701e-06
5.57593e-06
-1.23757e-06
5.34728e-06
-1.14946e-06
5.07229e-06
-1.14581e-06
4.88842e-06
-1.10337e-06
4.60317e-06
-1.04463e-06
4.33623e-06
-1.01707e-06
4.11418e-06
-9.72873e-07
3.83902e-06
-8.86203e-07
3.59178e-06
-8.33947e-07
3.42293e-06
-7.30779e-07
3.25548e-06
-6.52432e-07
3.14491e-06
-5.41192e-07
3.00046e-06
-4.75924e-07
2.92823e-06
-3.8149e-07
2.86729e-06
-3.16367e-07
2.80098e-06
-2.53338e-07
2.74602e-06
-1.82431e-07
2.67038e-06
-1.2173e-07
2.58017e-06
-6.86574e-08
2.52783e-06
-3.35466e-08
2.52091e-06
-2.86269e-08
2.47915e-06
-4.94817e-08
2.4232e-06
-6.14078e-08
2.33564e-06
-5.49337e-08
2.24938e-06
-4.78004e-08
2.12832e-06
-1.22206e-08
2.01438e-06
-6.98575e-10
1.93378e-06
-7.75054e-09
1.86745e-06
1.82088e-06
1.74557e-06
2.56057e-07
1.67223e-06
4.30567e-07
1.59485e-06
6.30382e-07
1.54248e-06
8.28731e-07
1.47107e-06
1.03696e-06
1.35617e-06
1.20761e-06
1.22483e-06
1.28893e-06
1.10107e-06
1.3093e-06
9.88986e-07
1.37387e-06
8.71687e-07
1.51459e-06
7.24786e-07
1.66473e-06
5.85945e-07
1.77423e-06
4.29251e-07
1.85819e-06
2.90166e-07
1.88292e-06
1.40519e-07
1.91526e-06
-1.455e-08
1.97308e-06
-2.53811e-07
2.07396e-06
-4.9813e-07
2.16354e-06
-7.09642e-07
2.27036e-06
-8.3221e-07
2.33758e-06
-9.13495e-07
2.31784e-06
-1.07424e-06
2.31556e-06