/*--------------------------------*- C++ -*----------------------------------*\
| =========                 |                                                 |
| \\      /  F ield         | OpenFOAM: The Open Source CFD Toolbox           |
|  \\    /   O peration     | Version:  v1612+                                |
|   \\  /    A nd           | Web:      www.OpenFOAM.com                      |
|    \\/     M anipulation  |                                                 |
\*---------------------------------------------------------------------------*/
FoamFile
{
    version     2.0;
    format      ascii;
    class       volVectorField;
    location    "1";
    object      U;
}
// * * * * * * * * * * * * * * * * * * * * * * * * * * * * * * * * * * * * * //

dimensions      [0 1 -1 0 0 0 0];

internalField   nonuniform List<vector> 
113025
(
(0.527778 0.000229241 0)
(0.527813 -0.000675374 -4.18368e-22)
(0.53855 -0.0424176 -4.38304e-22)
(-0.409219 0.15849 1.14761e-21)
(0.536229 -0.0409881 2.12014e-22)
(0.533856 -0.0391081 3.84174e-22)
(0.532015 -0.0378262 -3.3864e-22)
(0.529383 -0.0363334 0)
(0.527642 -0.0349326 -3.62461e-22)
(0.522982 -0.0167481 0)
(0.521593 -0.0155808 -1.54477e-23)
(0.520795 -0.0147871 0)
(0.525348 -0.0226744 0)
(0.523816 -0.0213913 0)
(0.527696 0.000497959 1.39785e-23)
(0.53932 -0.044298 0)
(-0.0733868 0.0605749 2.23697e-22)
(-0.398199 0.154557 8.51375e-22)
(-0.319324 0.0573056 9.30705e-22)
(0.53454 0.0287889 -4.10502e-21)
(0.524268 -0.0062353 -2.29156e-22)
(0.53332 0.0251908 3.73642e-22)
(0.525795 -0.00490721 -2.34563e-22)
(0.525389 -0.00495101 4.61367e-22)
(0.524506 -0.00559158 -7.0411e-24)
(0.339537 -0.0155052 -2.98205e-21)
(0.340491 -0.0109666 2.99386e-21)
(0.34255 -0.00504262 7.77175e-22)
(0.34291 -0.0336057 7.61182e-22)
(0.345121 -0.0273111 -5.76903e-22)
(0.343689 -0.0232173 -1.90263e-22)
(-0.327902 0.0510662 -2.8916e-21)
(-0.348266 0.0967016 -9.51117e-22)
(0.348973 0.00299106 -2.88408e-21)
(0.349454 -0.0364652 1.02136e-22)
(-0.331238 0.0388763 7.49716e-22)
(-0.357818 0.104447 1.46223e-21)
(0.353391 0.00699684 -3.43685e-22)
(0.354133 -0.0427673 4.32492e-23)
(-0.333475 0.0267281 1.81043e-21)
(-0.373511 0.113116 3.50974e-21)
(0.359428 0.0120449 0)
(0.526101 -0.0026493 0)
(0.359689 -0.0470591 8.47411e-23)
(-0.338554 0.0164952 1.05761e-21)
(-0.37962 0.119734 -7.71603e-22)
(0.365114 0.0164741 -8.02828e-22)
(0.526189 -0.00291601 2.78926e-22)
(0.36641 -0.0532952 -8.24774e-23)
(-0.343008 0.00399183 -1.05196e-21)
(-0.378276 0.117399 1.32124e-21)
(0.372345 0.0208682 -5.88153e-22)
(0.370852 -0.0585473 2.40852e-22)
(-0.345479 -0.00962739 -5.48329e-22)
(-0.382461 0.133459 -4.44543e-21)
(-0.373001 0.118001 0)
(0.377901 0.0260841 -7.34667e-23)
(0.375402 -0.0630831 9.85571e-25)
(-0.349459 -0.0216653 0)
(0.384563 0.0302685 1.14692e-21)
(0.527321 -0.00106801 -1.95918e-22)
(0.527656 -0.00186288 2.0346e-22)
(0.526778 -0.00206784 -2.0624e-22)
(0.527117 -0.00234318 4.20025e-22)
(0.526058 -0.00255872 -2.00501e-22)
(0.380864 -0.0665027 1.45487e-22)
(-0.351544 -0.0335881 0)
(0.388142 0.0357896 0)
(0.387852 -0.0706083 6.68959e-23)
(-0.35116 -0.0454657 -2.3545e-21)
(0.394823 0.039694 -1.58742e-21)
(0.394589 -0.0745799 1.26662e-22)
(-0.352452 -0.0546466 1.16825e-23)
(0.401145 0.0448712 5.03741e-22)
(0.399989 -0.0786132 0)
(-0.355395 -0.0619083 -4.61194e-22)
(0.407406 0.047626 -1.43463e-21)
(0.403967 -0.0823292 -5.58077e-23)
(-0.353729 -0.070696 1.92544e-21)
(0.411584 0.0510415 -4.43634e-22)
(0.409816 -0.0860195 -5.02979e-23)
(-0.346181 -0.0772055 6.42408e-22)
(0.416009 0.0543523 -4.38922e-22)
(0.416768 -0.0911366 9.23062e-23)
(-0.339072 -0.086238 1.18889e-21)
(0.42331 0.0586344 4.09175e-22)
(0.42305 -0.0954448 8.61007e-23)
(-0.341642 -0.0959928 -8.94079e-23)
(0.428213 0.0633375 3.88712e-22)
(0.426327 -0.098453 -3.94381e-23)
(-0.348427 -0.108105 3.36718e-21)
(0.433709 0.0662933 3.714e-22)
(0.432142 -0.101943 1.76526e-23)
(-0.356069 -0.119765 -9.47009e-22)
(0.438217 0.0690428 0)
(-0.337301 0.0860545 1.81983e-21)
(-0.337231 0.0783733 5.38633e-23)
(0.439716 -0.105155 1.55678e-23)
(-0.364218 -0.130912 6.76614e-22)
(-0.374922 -0.136124 1.76269e-22)
(-0.389478 -0.138797 8.24754e-22)
(0.443717 0.0716417 6.36788e-22)
(0.45896 -0.114145 -1.19219e-23)
(0.452426 -0.110882 4.65925e-23)
(0.44723 -0.107736 0)
(-0.331093 0.171831 -3.43138e-21)
(-0.369213 0.175965 0)
(0.448154 0.0746438 1.40672e-22)
(-0.404062 -0.139811 0)
(-0.406933 -0.135397 0)
(-0.407157 -0.135342 1.72708e-21)
(-0.403067 -0.136561 2.15893e-22)
(-0.399334 -0.137546 -2.17168e-22)
(-0.392944 -0.137916 0)
(-0.386261 -0.138605 0)
(-0.375781 -0.140736 0)
(-0.363302 -0.142251 -2.33583e-22)
(-0.348359 -0.141545 0)
(-0.331059 -0.13705 -9.86936e-22)
(-0.313039 -0.13099 7.2578e-22)
(-0.290985 -0.120568 -2.28433e-21)
(-0.270265 -0.106676 -1.56143e-21)
(-0.246136 -0.0865341 0)
(-0.221583 -0.0612843 2.244e-21)
(-0.194917 -0.0291044 -4.40021e-21)
(-0.167308 0.0127613 -1.6932e-21)
(-0.141185 0.0643087 4.88238e-21)
(-0.112362 0.123586 -4.56647e-21)
(-0.0868669 0.187892 1.15213e-21)
(-0.0607748 0.250839 2.23255e-21)
(-0.036592 0.309536 -5.36784e-21)
(-0.0220529 0.361664 6.26131e-21)
(-0.00674514 0.398887 1.87726e-23)
(-0.0011901 0.425557 -8.96926e-22)
(-0.000801861 0.439493 -3.87516e-21)
(-0.00418522 0.439189 -2.79699e-21)
(-0.0124827 0.431902 0)
(-0.021973 0.418873 -6.97478e-22)
(-0.0308726 0.400072 6.69164e-22)
(-0.0404166 0.381034 1.23533e-21)
(-0.045974 0.361973 -3.88375e-23)
(-0.049523 0.342644 7.79818e-22)
(-0.0517891 0.325803 -2.679e-22)
(-0.0512817 0.311262 -8.53664e-22)
(-0.048034 0.297587 -2.0913e-22)
(-0.045913 0.285158 6.05267e-22)
(-0.0390847 0.274977 -1.18281e-21)
(-0.0321852 0.264963 -7.21539e-22)
(-0.026015 0.256861 8.78763e-23)
(-0.0183514 0.248846 3.88344e-23)
(-0.0122125 0.242841 9.31538e-22)
(-0.00538262 0.238681 1.95167e-23)
(9.39108e-05 0.23431 1.33538e-22)
(0.00675919 0.230955 -1.59906e-22)
(0.0137528 0.224386 -1.21648e-22)
(0.0202056 0.217468 0)
(0.0280164 0.20939 0)
(0.0343087 0.203491 0)
(0.041028 0.195803 1.7763e-22)
(0.0467947 0.187491 0)
(0.0481393 0.17896 7.66733e-22)
(0.0461581 0.174534 -6.15133e-22)
(0.0425409 0.171118 -7.01714e-23)
(0.0415746 0.165535 1.61135e-23)
(0.0440481 0.155607 1.12366e-22)
(0.0474184 0.14353 1.03878e-22)
(0.0470604 0.134972 -5.94217e-24)
(0.0441348 0.13008 1.85787e-22)
(0.0392657 0.128451 4.18548e-23)
(0.0172586 0.133184 0)
(0.00305453 0.132284 6.17093e-23)
(-0.00614896 0.126508 -1.88406e-23)
(-0.0199125 0.121872 0)
(-0.0360664 0.11737 0)
(-0.0534821 0.114121 -6.35727e-23)
(-0.0679495 0.109142 0)
(-0.0770483 0.103969 0)
(-0.0799905 0.0951065 -4.90732e-23)
(-0.08223 0.0868338 2.82875e-22)
(-0.0874594 0.0771687 -2.31176e-22)
(-0.0967195 0.0688696 0)
(-0.104637 0.0583524 0)
(-0.10973 0.0479447 0)
(-0.114762 0.0364401 0)
(-0.117728 0.0246434 0)
(-0.119222 0.00925076 0)
(-0.115033 -0.00651563 -8.03951e-23)
(-0.115103 -0.0233058 0)
(-0.129316 -0.0393197 1.06155e-24)
(-0.143705 -0.0485198 2.04924e-23)
(-0.151101 -0.0536285 2.76394e-24)
(-0.151801 -0.062309 9.55233e-23)
(-0.151006 -0.0739879 -2.15152e-23)
(-0.150435 -0.0826147 5.65986e-23)
(-0.149911 -0.0927408 -5.72703e-23)
(-0.151037 -0.106255 -6.79426e-23)
(-0.153149 -0.117432 6.83546e-23)
(-0.148718 -0.127972 -3.25648e-22)
(-0.151802 -0.142111 3.26035e-22)
(-0.152079 -0.152849 0)
(-0.145745 -0.163595 0)
(-0.142154 -0.17282 2.20452e-22)
(-0.129835 -0.179094 -3.29845e-22)
(-0.118728 -0.182841 -8.24006e-24)
(-0.102973 -0.188289 6.20134e-23)
(-0.0898231 -0.193358 -3.38303e-22)
(-0.0792013 -0.201815 2.02919e-22)
(-0.0689758 -0.214084 0)
(-0.0532679 -0.21812 3.72287e-23)
(-0.028895 -0.219488 -1.62828e-22)
(-0.00278776 -0.214419 0)
(0.0177729 -0.217484 0)
(0.034665 -0.22088 4.40753e-23)
(0.0517897 -0.225733 1.06911e-22)
(0.0669075 -0.231015 -8.24507e-23)
(0.0775092 -0.237584 -1.22788e-23)
(0.0816187 -0.245065 0)
(0.0792416 -0.252695 4.15353e-22)
(0.0749166 -0.259254 6.47305e-22)
(0.0683669 -0.26726 -7.18863e-22)
(0.0643468 -0.268093 7.1774e-22)
(0.0595977 -0.266686 -2.63199e-22)
(0.0591117 -0.268342 -5.6828e-22)
(0.0552005 -0.268255 0)
(0.0527674 -0.270492 0)
(0.0476846 -0.267145 -1.00379e-21)
(0.0440083 -0.266781 1.50318e-21)
(0.0414936 -0.271153 -1.80542e-22)
(0.03799 -0.275025 -3.01595e-21)
(0.0351601 -0.275031 4.19509e-21)
(0.0347356 -0.273985 -2.36077e-21)
(0.0350624 -0.272867 0)
(0.0327465 -0.276274 -3.51235e-21)
(0.0304682 -0.280634 2.69359e-21)
(0.0298494 -0.283319 4.76736e-22)
(0.0297025 -0.284358 -1.00007e-21)
(0.0326268 -0.283494 0)
(0.0340187 -0.282379 -2.09332e-21)
(0.0381501 -0.279841 1.51531e-21)
(0.0432456 -0.27732 1.03493e-21)
(0.0496868 -0.275792 6.30651e-22)
(0.058124 -0.272972 -8.16863e-23)
(0.0683883 -0.268584 -1.72207e-21)
(0.0803733 -0.265267 2.19529e-21)
(0.0947188 -0.26127 -1.46116e-21)
(0.10757 -0.254864 -7.38466e-22)
(0.119754 -0.245782 -3.12509e-21)
(0.130424 -0.234873 2.47784e-23)
(0.138542 -0.220972 -2.51359e-21)
(0.143478 -0.203876 -8.67411e-22)
(0.147168 -0.185552 8.52156e-22)
(0.146479 -0.164897 8.79897e-22)
(0.142337 -0.142464 -8.87239e-22)
(0.139145 -0.121873 -1.06542e-22)
(0.129384 -0.099073 -2.11749e-22)
(0.118703 -0.0776638 1.23905e-24)
(0.110812 -0.057882 4.17189e-22)
(0.0967556 -0.0449787 -4.34515e-22)
(0.0857991 -0.0328068 -4.09908e-22)
(0.0728904 -0.0217934 1.62666e-21)
(0.061704 -0.0137692 -1.63592e-21)
(0.0493956 -0.00655538 -4.10659e-22)
(0.0380164 -0.000725967 0)
(0.024151 0.00634338 -3.06737e-22)
(0.0144947 0.012124 8.21254e-22)
(0.00466249 0.0171613 -1.65464e-21)
(-0.00417827 0.022746 4.20849e-22)
(-0.0101095 0.0249632 1.05568e-22)
(-0.0228718 0.0317684 -1.07143e-22)
(-0.0256968 0.0354908 4.32294e-22)
(-0.0427976 0.0377188 -2.64573e-21)
(-0.044039 0.0422092 1.77466e-21)
(-0.0552094 0.0504235 9.05277e-21)
(-0.0549523 0.0515064 7.24201e-21)
(-0.0656954 0.0521317 -3.59434e-21)
(-0.300679 0.152462 1.71379e-21)
(0.455781 0.076868 -1.30493e-23)
(0.524384 -0.00811437 -4.48066e-22)
(0.52334 -0.00750634 9.27259e-24)
(0.522478 -0.00909924 4.21518e-22)
(0.521427 -0.00836949 -3.92597e-22)
(-0.275604 0.127674 -1.71975e-21)
(0.461569 0.0790625 2.13976e-22)
(0.528576 0.0107289 -1.17354e-22)
(0.467614 0.0799203 -1.55783e-22)
(0.474449 0.0827259 5.50839e-22)
(0.47779 0.0805961 -1.00462e-22)
(0.482222 0.0783191 -4.4281e-22)
(0.485365 0.0765713 1.21061e-22)
(0.489656 0.0739998 8.15699e-23)
(0.492716 0.0721148 -2.57476e-23)
(0.49721 0.0697274 2.69236e-23)
(0.499811 0.0676821 2.06745e-23)
(0.504197 0.0654202 5.94393e-23)
(0.5064 0.0630762 0)
(0.510451 0.0608474 0)
(0.512628 0.0581912 -1.19962e-22)
(0.515976 0.0559333 0)
(0.518352 0.0533295 -2.08489e-22)
(0.520672 0.0511398 -4.33827e-22)
(0.523408 0.0486312 1.56712e-23)
(0.524867 0.046358 -1.51104e-23)
(0.527844 0.0441937 -2.77325e-22)
(0.528504 0.0419712 9.18536e-24)
(0.531226 0.0401314 -1.63608e-22)
(0.53089 0.0381445 1.78467e-23)
(0.53257 0.0361704 -2.05866e-23)
(0.532206 0.0333833 0)
(0.53449 0.0305528 -8.15425e-22)
(0.528411 0.0124024 2.85267e-24)
(0.528892 0.00927674 -6.10578e-23)
(-0.146151 0.0792072 1.55362e-21)
(-0.220512 0.102651 -1.75415e-21)
(0.528477 0.00772074 0)
(0.527714 0.00631751 2.81991e-22)
(0.52789 0.0051722 -4.8993e-22)
(0.528155 0.0039623 -4.45775e-22)
(0.527967 0.00331443 0)
(0.527562 0.00303631 1.24215e-22)
(0.527608 0.00158666 0)
(-0.397012 0.184178 0)
(0.539204 -0.0503488 0)
(-0.415046 0.19302 -3.15499e-21)
(0.541202 -0.0538081 -1.2839e-22)
(0.528928 0.0150449 -8.17019e-25)
(-0.427868 0.193527 -7.46628e-22)
(0.532921 0.0224445 2.46155e-22)
(0.531339 0.020915 -7.28648e-23)
(0.530655 0.0175798 6.95145e-23)
(0.529135 0.0163536 1.21809e-22)
(0.541997 -0.0591065 0)
(0.54216 -0.0642225 2.63816e-22)
(0.540471 -0.0668405 1.51744e-23)
(0.537373 -0.0704266 0)
(0.534907 -0.0728158 -2.87998e-23)
(0.532131 -0.0761486 0)
(0.528601 -0.0785633 0)
(0.526064 -0.0817668 -3.67798e-22)
(0.521632 -0.0841534 9.88788e-23)
(0.519255 -0.0871151 1.32824e-22)
(0.514239 -0.089384 -2.6808e-22)
(0.511813 -0.0920395 1.90615e-22)
(0.506757 -0.0941562 -4.37336e-23)
(0.503915 -0.0964689 -4.49908e-23)
(0.498806 -0.0986718 0)
(0.495333 -0.10077 -4.95792e-23)
(0.490426 -0.102894 0)
(0.486426 -0.104792 0)
(0.481879 -0.106837 -5.62745e-24)
(0.476989 -0.108572 -2.23377e-23)
(0.473415 -0.111018 -5.63604e-23)
(0.468304 -0.111696 0)
(0.465522 -0.113594 7.48217e-24)
(-0.44265 0.198693 -7.20287e-22)
(-0.437884 0.194389 1.05129e-21)
(0.52782 -0.000508393 -1.34277e-23)
(-0.438768 0.192704 0)
(0.527737 -0.000656919 3.78131e-22)
(0.527736 -0.00076086 4.43282e-22)
(0.527874 -0.000583426 0)
(0.527199 -0.000674489 9.57369e-23)
(0.527535 -0.000461154 1.30253e-23)
(-0.442426 0.181002 0)
(0.525113 -0.0254671 6.56498e-23)
(0.520591 -0.0108892 -1.38225e-23)
(0.52737 0.0014599 0)
(0.527389 -0.000856649 4.12726e-22)
(-0.425748 0.170183 4.6447e-22)
(0.524961 -0.0279489 2.69145e-22)
(0.525517 -0.0309598 6.42358e-23)
(0.520029 -0.0112903 -3.4675e-22)
(0.522912 -0.018043 0)
(0.527385 0.000997873 1.73575e-22)
(0.527449 -0.00126045 -2.55815e-22)
(-0.414908 0.154609 -6.04418e-22)
(0.525958 -0.0339473 7.11452e-23)
(0.520032 -0.0136524 0)
(0.522315 -0.020603 -2.13291e-22)
(0.52765 -5.47328e-06 -2.23466e-22)
(0.536959 -0.0430464 -1.00736e-22)
(-0.409489 0.153423 2.9892e-22)
(0.534558 -0.0417398 1.01045e-22)
(0.532209 -0.0410213 -3.47403e-22)
(0.529671 -0.0394866 1.82883e-23)
(0.528066 -0.0383652 0)
(0.525905 -0.0370085 1.88006e-23)
(0.521466 -0.0167597 0)
(0.520769 -0.0159487 -2.72167e-22)
(0.519576 -0.0146789 -3.23845e-22)
(0.523526 -0.0241567 1.09053e-22)
(0.522331 -0.0230453 -3.04551e-22)
(0.527463 0.000186398 4.05285e-23)
(0.537631 -0.0493375 2.1136e-22)
(-0.133162 0.0718707 3.33066e-21)
(-0.39659 0.139324 1.75554e-23)
(-0.330245 0.060701 0)
(0.532863 0.0251116 -8.46699e-22)
(0.526806 0.00273175 -1.19935e-22)
(-0.122003 0.0672079 3.55559e-21)
(0.527215 -0.00092075 1.84236e-21)
(0.519894 -0.0103284 -1.75807e-22)
(0.527713 -0.000444421 -1.72045e-21)
(0.524322 -0.0295405 1.70594e-22)
(0.527058 -0.00130962 0)
(0.52396 -0.00581261 -2.12933e-22)
(0.3458 -0.0138822 0)
(0.345215 -0.00933475 7.61375e-22)
(0.34815 -0.00346678 -7.56848e-22)
(0.350163 -0.0303302 -1.80021e-22)
(0.348024 -0.0258283 1.81261e-22)
(0.350378 -0.0200127 1.89758e-22)
(-0.336698 0.0501299 -1.99615e-21)
(-0.353648 0.094547 9.52192e-22)
(0.353747 -0.00103308 3.12418e-21)
(0.354614 -0.0377068 -1.71567e-22)
(-0.341749 0.0395165 -6.62587e-23)
(-0.369238 0.10472 -4.99667e-21)
(0.361685 0.00497337 -6.46519e-22)
(0.525722 -0.00577722 -1.13278e-22)
(0.524916 -0.00320849 0)
(0.524396 -0.00651734 -2.20319e-22)
(0.36098 -0.0427899 0)
(-0.344846 0.0259431 -2.59439e-22)
(-0.380471 0.11256 -1.54171e-21)
(0.367745 0.00949999 1.26923e-21)
(0.52574 -0.003746 2.17879e-22)
(0.365923 -0.0482513 -4.08809e-22)
(-0.349858 0.0166971 1.06386e-23)
(-0.38422 0.115734 2.38252e-21)
(0.373607 0.0155258 1.40799e-21)
(0.369554 -0.0527445 -4.76268e-22)
(-0.355625 0.0045434 -1.6412e-21)
(-0.380578 0.121516 4.4186e-21)
(-0.379096 0.113899 -2.41413e-21)
(0.377728 0.0199909 -1.48069e-22)
(0.3755 -0.056958 -7.66512e-23)
(-0.360562 -0.00714269 5.48325e-22)
(0.38331 0.024944 7.2584e-23)
(0.5275 -0.00168892 -9.96089e-23)
(0.526905 -0.00140322 0)
(0.526898 -0.00200726 1.00961e-22)
(0.526158 -0.00180674 -2.53298e-22)
(0.526267 -0.00283554 -5.39254e-23)
(0.381689 -0.0615035 -2.18674e-22)
(-0.36365 -0.0201528 0)
(0.388161 0.0288771 0)
(0.387674 -0.0661409 -1.74328e-23)
(-0.365977 -0.030191 -1.19618e-21)
(0.395447 0.0337012 5.13537e-22)
(0.392452 -0.0698661 -4.53396e-22)
(-0.364985 -0.0407426 0)
(0.399878 0.0373648 1.05959e-23)
(0.397239 -0.0735892 -1.19465e-22)
(-0.365453 -0.0489038 -3.02778e-21)
(0.404303 0.0420677 -1.22571e-23)
(0.4031 -0.0783513 -2.20651e-22)
(-0.368606 -0.0561623 2.61961e-21)
(0.409933 0.0460554 9.158e-22)
(0.410189 -0.0827612 -2.05778e-22)
(-0.364959 -0.064407 -1.29685e-21)
(0.416532 0.0514986 -6.68373e-24)
(0.415832 -0.0863757 0)
(-0.355679 -0.0741726 -9.27369e-24)
(0.423063 0.0554165 4.20547e-22)
(0.420179 -0.0904128 -4.84634e-24)
(-0.349364 -0.0862607 -6.90503e-22)
(0.426177 0.0586286 -5.83689e-24)
(0.425163 -0.0937981 -2.03987e-23)
(-0.3509 -0.0988917 -2.97687e-21)
(0.430898 0.0612799 -3.55754e-22)
(0.431861 -0.0983942 3.95465e-23)
(-0.358012 -0.111787 -3.75066e-22)
(0.437265 0.064244 0)
(-0.344666 0.0881877 -7.94654e-22)
(0.437484 -0.101581 -1.48213e-22)
(-0.365413 -0.122748 -1.3587e-21)
(-0.372313 -0.130774 9.79643e-23)
(-0.381482 -0.132896 6.15435e-22)
(0.442722 0.0681487 -6.1965e-22)
(0.458927 -0.110582 0)
(0.450797 -0.107221 -4.47897e-23)
(0.444237 -0.103952 -2.31594e-22)
(0.44764 0.0707306 1.55719e-22)
(-0.395981 -0.135192 0)
(-0.401281 -0.133278 0)
(-0.405653 -0.133344 -1.48528e-21)
(-0.408277 -0.135904 -3.18921e-22)
(-0.411004 -0.137533 1.07346e-22)
(-0.410648 -0.141246 0)
(-0.409616 -0.145047 0)
(-0.404466 -0.14992 0)
(-0.398922 -0.152973 1.19571e-21)
(-0.391706 -0.154399 -1.89539e-21)
(-0.380721 -0.153409 -1.97904e-21)
(-0.367698 -0.149468 1.96078e-21)
(-0.351705 -0.140389 4.07231e-21)
(-0.334721 -0.126875 -3.57388e-23)
(-0.315696 -0.109217 3.20311e-21)
(-0.296393 -0.0849774 1.11566e-21)
(-0.273934 -0.0535549 0)
(-0.252694 -0.0135363 1.71028e-21)
(-0.226825 0.0372608 -2.89039e-22)
(-0.203053 0.0964755 5.81297e-22)
(-0.176826 0.162252 -1.15322e-21)
(-0.148476 0.228775 1.14156e-21)
(-0.124566 0.289295 0)
(-0.101387 0.34379 -2.09384e-21)
(-0.0803223 0.387266 -2.45834e-21)
(-0.0686084 0.419521 4.89743e-22)
(-0.0558025 0.438329 3.3731e-21)
(-0.0510536 0.44398 6.3632e-21)
(-0.0496953 0.438385 2.94581e-21)
(-0.0508286 0.425208 -2.40142e-21)
(-0.0553342 0.407126 -3.55213e-22)
(-0.0589764 0.387677 1.20562e-21)
(-0.0618076 0.36619 5.52993e-22)
(-0.0657495 0.344976 -1.02836e-21)
(-0.0665853 0.326313 1.95663e-21)
(-0.0652709 0.310767 9.10293e-22)
(-0.0640433 0.295465 -1.02173e-22)
(-0.0588366 0.28056 1.02278e-22)
(-0.0520565 0.268751 0)
(-0.0456153 0.258899 3.7327e-22)
(-0.0378188 0.249155 -1.48339e-22)
(-0.0308968 0.241573 -2.41886e-22)
(-0.0230247 0.236239 -3.42e-22)
(-0.0168969 0.231357 3.37864e-22)
(-0.00942441 0.228103 5.34002e-22)
(-0.00207198 0.222379 -7.71039e-22)
(0.00552912 0.216973 9.31506e-22)
(0.0134447 0.209254 -8.74619e-22)
(0.0192225 0.203186 0)
(0.0230826 0.197257 0)
(0.0265973 0.192325 -1.76561e-22)
(0.0269006 0.185991 0)
(0.0259812 0.181834 0)
(0.0242093 0.17619 0)
(0.0245089 0.170889 -4.96423e-22)
(0.0270062 0.16184 4.9384e-22)
(0.0289681 0.151348 -3.23071e-22)
(0.028569 0.143627 3.09292e-22)
(0.0249041 0.138173 -1.09596e-23)
(0.0203872 0.135441 -9.03995e-23)
(0.00134992 0.136503 -4.00954e-23)
(-0.0108634 0.132989 -2.15216e-23)
(-0.0246502 0.126421 -1.91343e-23)
(-0.0409261 0.122474 -3.57927e-23)
(-0.0575139 0.117167 -1.90824e-22)
(-0.0739114 0.113526 2.57198e-22)
(-0.0846597 0.106658 -2.27285e-22)
(-0.0899704 0.0990202 2.27449e-22)
(-0.0918941 0.0891518 -9.87902e-23)
(-0.0977865 0.0803884 9.23081e-23)
(-0.106679 0.0708848 0)
(-0.11603 0.0607626 -1.67738e-22)
(-0.122281 0.0508522 1.65656e-22)
(-0.126336 0.0384519 7.75372e-23)
(-0.130135 0.027402 -1.63347e-22)
(-0.131784 0.0187921 3.55409e-23)
(-0.132164 0.0093357 7.67679e-24)
(-0.132578 -0.00797473 8.02952e-23)
(-0.135442 -0.0213629 -8.97532e-23)
(-0.143759 -0.0337934 -2.04889e-23)
(-0.156432 -0.0512929 -2.75764e-24)
(-0.167561 -0.0680664 -4.80443e-23)
(-0.165044 -0.0747779 -8.42597e-23)
(-0.157932 -0.0821029 -8.83829e-23)
(-0.16226 -0.0973684 6.21736e-23)
(-0.166952 -0.109657 0)
(-0.161108 -0.117933 0)
(-0.162893 -0.132682 0)
(-0.164156 -0.145456 -3.83887e-22)
(-0.160864 -0.155203 3.84179e-22)
(-0.15708 -0.165843 4.44377e-22)
(-0.146579 -0.172 -5.6316e-22)
(-0.136304 -0.178473 2.37116e-22)
(-0.121212 -0.182162 -1.1808e-22)
(-0.11055 -0.189436 -1.41799e-22)
(-0.0972682 -0.196244 2.8081e-22)
(-0.0899641 -0.20853 0)
(-0.0764028 -0.215529 0)
(-0.0529554 -0.216078 0)
(-0.0271691 -0.211576 2.6504e-22)
(-0.00264936 -0.211628 6.82804e-25)
(0.0133928 -0.215279 9.26825e-23)
(0.0294208 -0.221984 4.68554e-24)
(0.0468384 -0.227944 -1.1964e-23)
(0.0583314 -0.237102 2.10193e-22)
(0.0700326 -0.246098 5.38916e-23)
(0.0733492 -0.25433 -1.64784e-22)
(0.0731432 -0.260963 1.1143e-22)
(0.066771 -0.264029 7.3699e-22)
(0.0636271 -0.263324 -4.92307e-22)
(0.0567951 -0.262669 -1.63506e-21)
(0.0530036 -0.266859 1.10206e-21)
(0.047514 -0.264294 -1.23084e-21)
(0.0416797 -0.262347 9.05358e-22)
(0.0372463 -0.264562 0)
(0.0337193 -0.267036 -1.41981e-21)
(0.0304011 -0.267623 2.89894e-21)
(0.0256278 -0.270798 -2.60426e-21)
(0.0208748 -0.276195 3.12076e-22)
(0.0193385 -0.279181 1.60548e-21)
(0.0214804 -0.278489 8.68033e-22)
(0.0240141 -0.279167 2.71455e-21)
(0.0257328 -0.280882 -3.72096e-21)
(0.0262955 -0.282808 1.90459e-21)
(0.0262362 -0.284396 0)
(0.0277514 -0.284328 -1.35356e-22)
(0.0298094 -0.284652 2.18066e-21)
(0.0361122 -0.285264 -2.36194e-21)
(0.0443192 -0.284142 -2.87872e-21)
(0.0546622 -0.28353 2.41992e-21)
(0.0674428 -0.283631 -1.14269e-21)
(0.0816237 -0.282042 1.3966e-21)
(0.0950789 -0.275959 5.51334e-22)
(0.107308 -0.267357 1.93294e-23)
(0.119423 -0.255765 -7.80822e-22)
(0.127905 -0.243531 3.33072e-21)
(0.135113 -0.224422 1.4596e-21)
(0.137058 -0.203435 1.91899e-21)
(0.140653 -0.183862 -8.80493e-22)
(0.134915 -0.159167 -8.97668e-22)
(0.132844 -0.135093 1.76783e-21)
(0.121919 -0.11103 0)
(0.114029 -0.087067 -1.10183e-21)
(0.0946206 -0.0682837 1.86476e-21)
(0.0818094 -0.0495229 -8.64838e-22)
(0.0633181 -0.0336946 2.53129e-21)
(0.0479556 -0.0211699 0)
(0.0294279 -0.00967637 0)
(0.0165742 -0.000929388 3.27739e-21)
(0.000623107 0.00577153 -4.16925e-22)
(-0.0108768 0.011204 -3.82669e-24)
(-0.0262567 0.0176936 -1.08263e-21)
(-0.0382316 0.0231979 0)
(-0.0460128 0.027102 0)
(-0.0621399 0.0340666 0)
(-0.0630484 0.034146 -1.04738e-22)
(-0.0831854 0.0403692 1.06287e-22)
(-0.0809521 0.0450503 -3.06542e-25)
(-0.101484 0.0489871 8.72158e-22)
(-0.102296 0.050334 -3.51526e-21)
(-0.113685 0.0584852 -1.42391e-20)
(-0.116338 0.0635872 3.56254e-21)
(-0.325082 0.163043 1.70003e-21)
(-0.364015 0.169516 -1.69926e-21)
(0.454168 0.0729978 2.49424e-22)
(0.523928 -0.00751009 -2.11149e-22)
(0.522546 -0.00694425 2.20806e-22)
(0.522124 -0.00841348 2.00384e-22)
(0.520432 -0.00749559 5.29649e-22)
(-0.291668 0.140904 -4.42388e-24)
(0.459069 0.0746064 -2.14417e-22)
(0.464662 0.077363 -3.621e-22)
(0.472047 0.07834 1.61278e-23)
(0.476024 0.0758433 -1.32346e-22)
(0.479869 0.074467 -2.98899e-23)
(0.483538 0.0717868 -2.5407e-22)
(0.487005 0.0707354 7.36672e-23)
(0.490787 0.0676042 -7.73646e-23)
(0.493913 0.0666247 0)
(0.497803 0.0637059 2.92017e-24)
(0.500243 0.0623976 -2.90316e-24)
(0.504474 0.0597381 0)
(0.506232 0.0579582 5.88119e-23)
(0.510873 0.0555212 9.06667e-23)
(0.511994 0.0534091 -8.82596e-23)
(0.516619 0.0509871 0)
(0.517285 0.0488291 6.14274e-24)
(0.521659 0.046447 2.19303e-22)
(0.522237 0.0443836 2.18367e-22)
(0.526085 0.0421102 5.0644e-22)
(0.52665 0.0404956 2.62443e-22)
(0.529481 0.0381386 0)
(0.529271 0.0368002 0)
(0.530699 0.0345357 -1.448e-22)
(0.529843 0.0330849 1.51566e-22)
(0.531737 0.0300271 1.16941e-21)
(0.531704 0.0274902 1.74271e-21)
(0.527488 0.0115744 5.90629e-23)
(0.526963 0.0097915 1.74672e-22)
(-0.210154 0.0930147 0)
(-0.260173 0.114969 -3.45238e-21)
(0.527248 0.00829719 0)
(0.527897 0.00698709 -2.98335e-23)
(0.527598 0.00571273 -1.47928e-23)
(0.527276 0.00472013 4.99968e-22)
(0.527401 0.00344738 6.0919e-23)
(0.526733 0.00277644 -6.22453e-23)
(-0.393658 0.178669 4.08793e-22)
(-0.417246 0.186437 3.16043e-21)
(0.539097 -0.0518467 1.08291e-22)
(0.52796 0.0134389 -1.15817e-22)
(-0.429985 0.187705 0)
(0.531424 0.0227454 -4.30419e-23)
(0.530961 0.0194551 7.22408e-23)
(0.529986 0.0180891 -9.65641e-23)
(0.528386 0.0173786 -2.07271e-22)
(0.527882 0.0144519 5.97314e-23)
(0.538634 -0.0572902 2.29927e-22)
(0.539175 -0.0615545 0)
(0.537251 -0.0650308 -1.30837e-22)
(0.534212 -0.0672969 2.77628e-22)
(0.532065 -0.0706693 1.37222e-23)
(0.52862 -0.0729425 -2.29793e-23)
(0.526169 -0.0761003 0)
(0.522483 -0.0784725 8.89139e-23)
(0.51952 -0.0812059 1.48587e-22)
(0.515938 -0.0837443 -1.07032e-23)
(0.512139 -0.0859045 0)
(0.509008 -0.0887054 4.30026e-23)
(0.504297 -0.0903858 8.88299e-23)
(0.501782 -0.0931808 0)
(0.496133 -0.094561 1.48231e-23)
(0.493837 -0.0972667 -1.47601e-23)
(0.487479 -0.098563 -3.17588e-24)
(0.485144 -0.101218 3.17437e-24)
(0.478635 -0.102357 1.73784e-23)
(0.476639 -0.104946 -1.91305e-23)
(0.470086 -0.105688 1.90525e-23)
(0.467918 -0.108213 2.31319e-22)
(0.461768 -0.108529 0)
(-0.445575 0.189778 7.36257e-22)
(-0.443815 0.194562 3.64241e-22)
(-0.447718 0.186616 -1.03247e-21)
(0.527162 -0.00103463 5.85115e-24)
(0.526847 -0.00233766 2.40137e-23)
(0.527488 -0.000820784 0)
(-0.450583 0.179896 8.11042e-23)
(0.520045 -0.00995254 0)
(0.527062 0.00137529 1.19522e-22)
(0.527487 -0.000914812 0)
(-0.437271 0.173933 0)
(0.523876 -0.0265687 0)
(0.527052 0.000697219 5.83596e-23)
(-0.42484 0.157491 9.15737e-22)
(0.523959 -0.032143 1.17745e-22)
(0.519442 -0.0128412 3.43974e-22)
(0.521072 -0.0195669 -4.55148e-23)
(0.527076 0.000828576 -2.36076e-22)
(-0.416951 0.148668 -5.87656e-22)
(0.523771 -0.0352122 0)
(0.518456 -0.0137354 8.14947e-23)
(0.521332 -0.0214671 1.78021e-22)
(0.527447 -0.000135081 1.9178e-22)
(0.534831 -0.0473057 -1.94259e-22)
(-0.408456 0.142542 0)
(0.532353 -0.045872 0)
(0.530201 -0.0433957 6.68992e-22)
(0.528414 -0.0420283 1.71141e-22)
(0.525827 -0.0401151 2.82344e-22)
(0.524036 -0.0384636 1.29641e-22)
(0.520325 -0.0187121 -3.80513e-23)
(0.51889 -0.0172926 2.5528e-22)
(0.518071 -0.0163668 2.27314e-22)
(0.522554 -0.0253344 0)
(0.520965 -0.0238746 2.90753e-22)
(0.527255 -3.05788e-05 0)
(0.535283 -0.0493933 -2.22753e-22)
(-0.192375 0.0852835 -3.61318e-21)
(-0.392525 0.126871 1.41882e-22)
(-0.337406 0.0561374 0)
(0.531174 0.0253755 2.30716e-22)
(0.34976 -0.0152404 3.01247e-21)
(0.35092 -0.0116378 0)
(0.352916 -0.00536106 0)
(0.353567 -0.0331735 1.79178e-22)
(0.355473 -0.0272043 -3.86948e-22)
(0.353756 -0.0230903 2.33889e-23)
(-0.344659 0.0484527 -1.30323e-21)
(-0.364094 0.09515 1.00321e-21)
(0.359595 0.00231539 0)
(0.523472 -0.00373328 8.19656e-24)
(0.359672 -0.0360234 1.71093e-22)
(-0.351179 0.0375206 -2.18069e-21)
(-0.376326 0.103309 1.01591e-21)
(0.364005 0.00633345 3.31469e-22)
(0.525043 -0.00348285 -1.10506e-22)
(0.524489 -0.00418527 0)
(0.523659 -0.00412884 -1.78624e-24)
(0.364311 -0.0424738 1.02074e-22)
(-0.355018 0.0271291 -1.60317e-21)
(-0.389493 0.111923 -2.12291e-21)
(0.370001 0.011446 -1.87232e-21)
(0.369954 -0.0468022 9.80509e-24)
(-0.360303 0.0159732 2.17067e-21)
(-0.384053 0.112956 -4.39434e-21)
(-0.386017 0.110854 2.17678e-21)
(0.375472 0.0157481 -6.0646e-22)
(0.376293 -0.0527389 1.04018e-23)
(-0.366834 0.00452376 2.63905e-22)
(0.382626 0.0203493 1.45727e-22)
(0.52602 -0.00239426 2.08402e-22)
(0.525049 -0.00306059 0)
(0.380727 -0.0575211 -3.87626e-23)
(-0.371959 -0.00684096 0)
(0.388006 0.0253847 0)
(0.38536 -0.0615126 1.73789e-23)
(-0.377207 -0.0181394 1.15011e-21)
(0.394367 0.0294825 1.06557e-21)
(0.391172 -0.0649613 2.4391e-22)
(-0.377907 -0.0280646 -5.45659e-22)
(0.397824 0.0349007 -2.05597e-21)
(0.39774 -0.0692817 -1.28783e-22)
(-0.377315 -0.0367106 4.21939e-21)
(0.404344 0.0387333 9.7146e-22)
(0.403809 -0.0732472 1.18554e-22)
(-0.377463 -0.043873 -2.47494e-21)
(0.410525 0.0434001 4.78441e-22)
(0.408852 -0.0771303 2.19484e-22)
(-0.379508 -0.0512627 2.51203e-21)
(0.416367 0.0459602 4.16482e-22)
(0.413134 -0.0804599 3.07771e-22)
(-0.376967 -0.0609979 0)
(0.420184 0.0494973 -1.24242e-21)
(0.419093 -0.0840169 0)
(-0.367825 -0.0728751 -1.62472e-22)
(0.424784 0.0530317 0)
(0.425762 -0.089574 -8.84732e-23)
(-0.361828 -0.086403 4.28628e-21)
(0.43205 0.0570859 -1.11917e-21)
(0.431109 -0.0933424 5.66208e-23)
(-0.363913 -0.0991996 -2.75234e-21)
(0.436535 0.0612949 5.93099e-24)
(-0.352085 0.0867982 -1.21721e-22)
(0.43544 -0.0961218 -1.3824e-22)
(-0.369678 -0.112199 0)
(-0.375781 -0.121515 7.74491e-22)
(-0.381477 -0.127093 -2.01155e-22)
(0.441726 0.0638092 0)
(0.457047 -0.105112 4.01834e-22)
(0.450403 -0.1016 3.27893e-22)
(0.442827 -0.0985189 2.51321e-22)
(0.446419 0.066262 6.07231e-22)
(-0.388452 -0.128014 1.10191e-23)
(-0.396391 -0.125178 2.25485e-23)
(-0.402479 -0.126944 -7.90072e-22)
(-0.408742 -0.12973 -1.65108e-21)
(-0.41449 -0.133142 -8.43474e-22)
(-0.419233 -0.136683 -4.30837e-22)
(-0.424086 -0.142443 -8.97005e-22)
(-0.42649 -0.149873 1.35065e-21)
(-0.428042 -0.155598 -4.65656e-22)
(-0.427824 -0.159415 9.41944e-22)
(-0.423645 -0.161153 -1.97181e-23)
(-0.417345 -0.159735 9.81387e-22)
(-0.409267 -0.153816 -2.05758e-21)
(-0.396916 -0.142677 -1.04758e-21)
(-0.384487 -0.12489 2.13747e-21)
(-0.369655 -0.101293 1.09618e-21)
(-0.354587 -0.0712482 3.42948e-21)
(-0.337667 -0.0341957 -5.75517e-21)
(-0.316936 0.0136339 2.31064e-21)
(-0.295384 0.0711194 -1.16817e-21)
(-0.271809 0.135543 2.90315e-22)
(-0.243173 0.202582 -1.14407e-21)
(-0.217259 0.26567 0)
(-0.188947 0.322315 0)
(-0.166659 0.368817 0)
(-0.144024 0.405994 9.61376e-22)
(-0.125434 0.42727 9.00013e-22)
(-0.111714 0.437053 -6.74826e-21)
(-0.100952 0.433955 -2.56102e-21)
(-0.0954254 0.424126 2.73768e-21)
(-0.0913449 0.408207 -1.27625e-21)
(-0.089782 0.388495 -2.32909e-21)
(-0.0883375 0.368691 -5.5216e-22)
(-0.0872745 0.347287 1.02249e-21)
(-0.084233 0.327423 -4.54879e-22)
(-0.0823238 0.309296 -4.08863e-22)
(-0.0772076 0.291681 -8.05922e-22)
(-0.0713975 0.274867 1.86698e-22)
(-0.066282 0.262212 -2.75826e-22)
(-0.0583313 0.251336 8.79063e-23)
(-0.0517148 0.241728 6.54892e-22)
(-0.04436 0.234605 1.31355e-22)
(-0.037436 0.227633 -2.59473e-22)
(-0.0302638 0.22424 2.78922e-22)
(-0.0229414 0.219542 0)
(-0.0165096 0.215221 0)
(-0.00954794 0.209154 9.68146e-22)
(-0.00440969 0.203939 -4.3692e-22)
(-0.00154189 0.199217 -5.58572e-22)
(0.000950706 0.195561 2.7288e-23)
(0.00089639 0.190789 5.02721e-22)
(0.000850063 0.186644 2.93144e-22)
(0.000418006 0.181097 2.49476e-22)
(0.00137674 0.175808 -1.04025e-21)
(0.00290839 0.167701 5.02269e-22)
(0.00438517 0.159713 0)
(0.00441162 0.152295 0)
(0.00318226 0.14614 -9.9039e-23)
(0.00133265 0.141806 -1.82907e-22)
(-0.0144356 0.138874 0)
(-0.029746 0.133431 1.90175e-23)
(-0.0459684 0.126961 3.5725e-23)
(-0.0634364 0.122252 -1.36483e-22)
(-0.0789292 0.117443 2.05491e-22)
(-0.0923336 0.111231 2.43561e-22)
(-0.0981993 0.102992 -2.4591e-22)
(-0.102061 0.092887 0)
(-0.10746 0.0832403 2.0753e-22)